/*--------------------------------*- C++ -*----------------------------------*\
| =========                 |                                                 |
| \\      /  F ield         | OpenFOAM: The Open Source CFD Toolbox           |
|  \\    /   O peration     | Version:  2.4.0                                 |
|   \\  /    A nd           | Web:      www.OpenFOAM.org                      |
|    \\/     M anipulation  |                                                 |
\*---------------------------------------------------------------------------*/
FoamFile
{
    version     2.0;
    format      ascii;
    class       volScalarField;
    location    "0";
    object      alpha1;
}
// * * * * * * * * * * * * * * * * * * * * * * * * * * * * * * * * * * * * * //

dimensions      [0 0 0 0 0 0 0];

internalField   uniform 0;

boundaryField
{
    Inlet
     {
        type		 fixedValue;
        value		 uniform 0;
     }

    BotOutlet
    {
        type		 zeroGradient;
    }

    FreeStream
    {
        type        zeroGradient;
    }

    FrontNBack
    {
        type            empty;
    }

    LeftSide
    {
        type            constantAlphaContactAngle;
        gradient        uniform 0;
        limit           zeroGradient;
        theta0          0;
        value           uniform 1;
    }
}


// ************************************************************************* //
