/*--------------------------------*- C++ -*----------------------------------*\
| =========                 |                                                 |
| \\      /  F ield         | OpenFOAM: The Open Source CFD Toolbox           |
|  \\    /   O peration     | Version:  2.4.x                                 |
|   \\  /    A nd           | Web:      www.OpenFOAM.org                      |
|    \\/     M anipulation  |                                                 |
\*---------------------------------------------------------------------------*/
FoamFile
{
    version     2.0;
    format      ascii;
    class       volScalarField;
    location    "0.001";
    object      PhaseChangeHeat;
}
// * * * * * * * * * * * * * * * * * * * * * * * * * * * * * * * * * * * * * //

dimensions      [1 -1 -3 0 0 0 0];

internalField   nonuniform List<scalar> 
256
(
0
-0
-0
-1.06601e+12
-1.16864e+07
-0.284216
-1.74352e-07
4.54615e-14
2.09142e-16
2.98723e-17
3.72739e-18
4.08715e-19
3.95651e-20
3.39506e-21
2.5923e-22
1.7678e-23
1.08053e-24
5.94017e-26
2.94677e-27
1.32326e-28
5.39492e-30
2.00255e-31
6.78551e-33
2.10406e-34
5.98436e-36
1.5646e-37
3.76791e-39
8.37405e-41
1.72062e-42
3.27401e-44
5.77832e-46
9.47309e-48
1.44462e-49
2.05189e-51
2.71785e-53
3.36101e-55
3.88471e-57
4.20084e-59
4.25421e-61
4.03833e-63
3.59627e-65
3.0069e-67
2.36226e-69
1.74496e-71
1.21277e-73
7.93553e-76
4.89136e-78
2.84166e-80
1.55677e-82
8.0461e-85
3.92502e-87
1.80788e-89
7.86539e-92
3.23326e-94
1.2562e-96
4.61413e-99
1.60264e-101
5.26484e-104
1.63611e-106
4.8104e-109
1.33825e-111
3.52305e-114
8.77701e-117
2.06932e-119
4.617e-122
9.74811e-125
1.94751e-127
3.68117e-130
6.58231e-133
1.11321e-135
1.7803e-138
2.69159e-141
3.84591e-144
5.19181e-147
6.61912e-150
7.96634e-153
9.04666e-156
9.68856e-159
9.77954e-162
9.29795e-165
8.32068e-168
7.0032e-171
5.53903e-174
4.11306e-177
2.86452e-180
1.869e-183
1.14106e-186
6.50989e-190
3.46551e-193
1.71868e-196
7.92662e-200
3.39316e-203
1.34528e-206
4.92807e-210
1.66363e-213
5.16027e-217
1.46589e-220
3.7996e-224
8.94913e-228
1.90628e-231
3.65289e-235
6.25859e-239
9.52071e-243
1.27563e-246
1.49155e-250
1.50603e-254
1.29774e-258
9.42275e-263
5.69324e-267
2.83444e-271
1.15951e-275
3.92989e-280
1.12172e-284
2.72857e-289
5.68488e-294
1.01589e-298
1.55603e-303
1.88704e-308
3.35406e-309
1.05878e-309
0
0
0
0
0
0
0
0
0
0
0
0
0
0
0
0
0
0
0
0
0
0
0
0
0
0
0
0
0
0
0
0
0
0
0
0
0
0
0
0
0
0
0
0
0
0
0
0
0
0
0
0
0
0
0
0
0
0
0
0
0
0
0
0
0
0
0
0
0
0
0
0
0
0
0
0
0
0
0
0
0
0
0
0
0
0
0
0
0
0
0
0
0
0
0
0
0
0
0
0
0
0
0
0
0
0
0
0
0
0
0
0
0
0
0
0
0
0
0
0
0
0
0
0
0
0
0
0
0
0
0
0
0
0
0
0
)
;

boundaryField
{
    BotWall
    {
        type            calculated;
        value           uniform 1.03523e+10;
    }
    FreeStream
    {
        type            calculated;
        value           uniform 0;
    }
    FrontNBack
    {
        type            empty;
    }
    LeftSide
    {
        type            symmetryPlane;
    }
    RightSide
    {
        type            symmetryPlane;
    }
}


// ************************************************************************* //
