/*--------------------------------*- C++ -*----------------------------------*\
| =========                 |                                                 |
| \\      /  F ield         | OpenFOAM: The Open Source CFD Toolbox           |
|  \\    /   O peration     | Version:  2.4.x                                 |
|   \\  /    A nd           | Web:      www.OpenFOAM.org                      |
|    \\/     M anipulation  |                                                 |
\*---------------------------------------------------------------------------*/
FoamFile
{
    version     2.0;
    format      ascii;
    class       volScalarField;
    location    "0.001";
    object      T;
}
// * * * * * * * * * * * * * * * * * * * * * * * * * * * * * * * * * * * * * //

dimensions      [0 0 0 1 0 0 0];

internalField   nonuniform List<scalar> 
256
(
356.523
363.59
370.697
377.844
377.844
377.844
377.845
377.845
377.845
377.845
377.845
377.846
377.846
377.846
377.847
377.847
377.848
377.848
377.849
377.849
377.85
377.85
377.851
377.852
377.853
377.853
377.854
377.855
377.856
377.857
377.858
377.859
377.86
377.861
377.863
377.864
377.865
377.866
377.868
377.869
377.87
377.872
377.873
377.875
377.876
377.878
377.879
377.881
377.883
377.884
377.886
377.888
377.889
377.891
377.893
377.895
377.896
377.898
377.9
377.902
377.904
377.906
377.908
377.909
377.911
377.913
377.915
377.917
377.919
377.921
377.923
377.925
377.926
377.928
377.93
377.932
377.934
377.936
377.938
377.939
377.941
377.943
377.945
377.946
377.948
377.95
377.951
377.953
377.955
377.956
377.958
377.959
377.961
377.962
377.964
377.965
377.967
377.968
377.969
377.97
377.972
377.973
377.974
377.975
377.976
377.978
377.979
377.98
377.981
377.982
377.982
377.983
377.984
377.985
377.986
377.987
377.987
377.988
377.989
377.989
377.99
377.991
377.991
377.992
377.992
377.993
377.993
377.994
377.994
377.994
377.995
377.995
377.996
377.996
377.996
377.996
377.997
377.997
377.997
377.997
377.998
377.998
377.998
377.998
377.998
377.998
377.999
377.999
377.999
377.999
377.999
377.999
377.999
377.999
377.999
377.999
377.999
378
378
378
378
378
378
378
378
378
378
378
378
378
378
378
378
378
378
378
378
378
378
378
378
378
378
378
378
378
378
378
378
378
378
378
378
378
378
378
378
378
378
378
378
378
378
378
378
378
378
378
378
378
378
378
378
378
378
378
378
378
378
378
378
378
378
378
378
378
378
378
378
378
378
378
378
378
378
378
378
378
378
378
378
378
378
378
378
378
378
378
378
378
378
378
378
378
378
378
)
;

boundaryField
{
    BotWall
    {
        type            fixedValue;
        value           uniform 353;
    }
    FreeStream
    {
        type            fixedValue;
        value           uniform 378;
    }
    FrontNBack
    {
        type            empty;
    }
    LeftSide
    {
        type            symmetryPlane;
    }
    RightSide
    {
        type            symmetryPlane;
    }
}


// ************************************************************************* //
