/*--------------------------------*- C++ -*----------------------------------*\
  =========                 |
  \\      /  F ield         | OpenFOAM: The Open Source CFD Toolbox
   \\    /   O peration     | Website:  https://openfoam.org
    \\  /    A nd           | Version:  6
     \\/     M anipulation  |
\*---------------------------------------------------------------------------*/
FoamFile
{
    version     2.0;
    format      ascii;
    class       volScalarField;
    location    "0";
    object      alpha1;
}
// * * * * * * * * * * * * * * * * * * * * * * * * * * * * * * * * * * * * * //

dimensions      [0 0 0 0 0 0 0];

internalField   nonuniform List<scalar> 
18060
(
-1.73404e+06
-1.52101e+06
-1.42553e+06
-1.10533e+06
-996563
-701259
-610863
-379562
-323172
-169821
-133457
-56520.2
-37067.6
-10201.3
-1549.18
6479.5
10008.2
12520.3
13870.8
14711.4
15179.7
15430
15535.5
15544.8
15490.2
15393.9
15271.9
15135.6
14993.2
14851
14713.3
14583.2
14462.7
14353.1
14254.8
14168
14092.3
14027.2
13972
13925.7
13887.4
13856.1
13831
13811
13795.3
13783.2
13774
13767.1
13762
13758.3
13755.7
13754
13752.9
13752.3
13751.9
13751.6
13751.4
13751.3
13751.3
13751.2
13751.3
13751.3
13751.3
13751.3
13751.4
13751.4
13751.4
13751.4
13751.5
13751.5
13751.5
13751.5
13751.6
13751.6
13751.6
13751.6
13751.6
13751.6
13751.6
13751.6
13751.6
13751.6
13751.6
13751.6
13751.6
13751.6
13751.6
13751.6
13751.6
13751.6
13751.7
13751.7
13751.7
13751.7
13751.7
13751.7
13751.7
13751.7
13751.7
13751.7
13751.7
13751.7
13751.7
13751.7
13751.7
-222995
-37183.7
-34814.6
-9181.77
-238.472
24262.8
14005.1
22417
18745.8
18597.2
16096
14895
14376.6
14395
14383
14351.2
14307.5
14258.2
14207.7
14158.7
14112.5
14070.2
14032.8
13998.9
13968.3
13940.6
13915.5
13892.8
13872.4
13854.2
13838
13823.7
13811.3
13800.6
13791.4
13783.6
13777
13771.6
13767.2
13763.6
13760.8
13758.5
13756.8
13755.4
13754.4
13753.6
13753
13752.6
13752.3
13752.1
13752
13751.9
13751.8
13751.7
13751.7
13751.7
13751.7
13751.7
13751.7
13751.7
13751.7
13751.7
13751.7
13751.7
13751.7
13751.7
13751.7
13751.7
13751.7
13751.7
13751.7
13751.7
13751.7
13751.7
13751.7
13751.7
13751.7
13751.7
13751.7
13751.7
13751.7
13751.7
13751.7
13751.7
13751.7
13751.7
13751.7
13751.7
13751.7
13751.7
13751.7
13751.7
13751.7
13751.7
13751.7
13751.7
13751.7
13751.7
13751.7
13751.7
13751.7
13751.7
13751.7
13751.7
13751.7
9739.22
10331.5
9809.38
9983.45
11596.4
12506.2
13139.5
13591.5
13917.1
14150.5
14310.9
14410.6
14459.9
14469.1
14448.8
14408.8
14357.5
14301.3
14244.7
14190.1
14139
14092.4
14051.6
14014.8
13981.8
13951.9
13925
13900.8
13879.1
13859.7
13842.5
13827.4
13814.2
13802.9
13793.2
13785
13778.1
13772.5
13767.8
13764.1
13761.1
13758.7
13756.9
13755.5
13754.5
13753.7
13753.1
13752.6
13752.3
13752.1
13752
13751.9
13751.8
13751.7
13751.7
13751.7
13751.7
13751.7
13751.7
13751.7
13751.7
13751.7
13751.7
13751.7
13751.7
13751.7
13751.7
13751.7
13751.7
13751.7
13751.7
13751.7
13751.7
13751.7
13751.7
13751.7
13751.7
13751.7
13751.7
13751.7
13751.7
13751.7
13751.7
13751.7
13751.7
13751.7
13751.7
13751.7
13751.7
13751.7
13751.7
13751.7
13751.7
13751.7
13751.7
13751.7
13751.7
13751.7
13751.7
13751.7
13751.7
13751.7
13751.7
13751.7
13751.7
8636.56
11484.7
13381.3
9709.32
11504.2
12484.6
13166.2
13648
13991.8
14234.2
14397
14494.8
14539.3
14542.3
14514.9
14467.6
14409.1
14346.1
14283.2
14223
14166.8
14115.6
14071.2
14031.4
13995.8
13963.8
13935
13909.1
13886
13865.4
13847.2
13831.2
13817.2
13805.3
13795
13786.4
13779.2
13773.3
13768.4
13764.5
13761.4
13759
13757.1
13755.6
13754.5
13753.7
13753.1
13752.7
13752.4
13752.1
13752
13751.9
13751.8
13751.7
13751.7
13751.7
13751.7
13751.7
13751.7
13751.7
13751.7
13751.7
13751.7
13751.7
13751.7
13751.7
13751.7
13751.7
13751.7
13751.7
13751.7
13751.7
13751.7
13751.7
13751.7
13751.7
13751.7
13751.7
13751.7
13751.7
13751.7
13751.7
13751.7
13751.7
13751.7
13751.7
13751.7
13751.7
13751.7
13751.7
13751.7
13751.7
13751.7
13751.7
13751.7
13751.7
13751.7
13751.7
13751.7
13751.7
13751.7
13751.7
13751.7
13751.7
13751.7
-1364.09
226.357
4014.36
9896.92
11411.4
12448.1
13169.8
13680.5
14044.5
14300.3
14470.7
14571.2
14614.8
14614.1
14581.3
14527.5
14462.1
14392.4
14323.1
14257.3
14195.9
14139.8
14091.7
14048.8
14010.5
13976.2
13945.4
13917.8
13893.2
13871.3
13852
13835.1
13820.4
13807.7
13797
13787.9
13780.4
13774.1
13769.1
13765
13761.8
13759.2
13757.2
13755.7
13754.6
13753.8
13753.1
13752.7
13752.4
13752.1
13752
13751.9
13751.8
13751.7
13751.7
13751.7
13751.7
13751.7
13751.7
13751.7
13751.7
13751.7
13751.7
13751.7
13751.7
13751.7
13751.7
13751.7
13751.7
13751.7
13751.7
13751.7
13751.7
13751.7
13751.7
13751.7
13751.7
13751.7
13751.7
13751.7
13751.7
13751.7
13751.7
13751.7
13751.7
13751.7
13751.7
13751.7
13751.7
13751.7
13751.7
13751.7
13751.7
13751.7
13751.7
13751.7
13751.7
13751.7
13751.7
13751.7
13751.7
13751.7
13751.7
13751.7
13751.7
-1240.77
3988.62
7413.82
9734.64
11313.3
12399.9
13159.1
13698.3
14083.9
14355.4
14536.1
14642.1
14687.3
14684.8
14647.9
14588.5
14516.6
14440.1
14364.5
14292.9
14226.2
14165.1
14113.1
14066.9
14025.7
13989
13956.2
13926.9
13900.7
13877.5
13857
13839.1
13823.6
13810.3
13799
13789.5
13781.5
13775
13769.7
13765.5
13762.1
13759.5
13757.4
13755.9
13754.7
13753.8
13753.2
13752.7
13752.4
13752.1
13752
13751.9
13751.8
13751.7
13751.7
13751.7
13751.7
13751.7
13751.7
13751.7
13751.7
13751.7
13751.7
13751.7
13751.7
13751.7
13751.7
13751.7
13751.7
13751.7
13751.7
13751.7
13751.7
13751.7
13751.7
13751.7
13751.7
13751.7
13751.7
13751.7
13751.7
13751.7
13751.7
13751.7
13751.7
13751.7
13751.7
13751.7
13751.7
13751.7
13751.7
13751.7
13751.7
13751.7
13751.7
13751.7
13751.7
13751.7
13751.7
13751.7
13751.7
13751.7
13751.7
13751.7
13751.7
-1137.88
3760.47
7229.45
9604.44
11231.5
12356.9
13147.1
13711.1
14117
14404.3
14596.5
14709.7
14758
14755.2
14715.1
14650.5
14572.4
14489.2
14407.2
14329.8
14257.8
14191.3
14135.3
14085.6
14041.6
14002.4
13967.5
13936.3
13908.5
13883.9
13862.3
13843.4
13827
13813
13801.1
13791.1
13782.8
13775.9
13770.4
13766
13762.5
13759.7
13757.6
13756
13754.8
13753.9
13753.2
13752.7
13752.4
13752.2
13752
13751.9
13751.8
13751.7
13751.7
13751.7
13751.7
13751.7
13751.7
13751.7
13751.7
13751.7
13751.7
13751.7
13751.7
13751.7
13751.7
13751.7
13751.7
13751.7
13751.7
13751.7
13751.7
13751.7
13751.7
13751.7
13751.7
13751.7
13751.7
13751.7
13751.7
13751.7
13751.7
13751.7
13751.7
13751.7
13751.7
13751.7
13751.7
13751.7
13751.7
13751.7
13751.7
13751.7
13751.7
13751.7
13751.7
13751.7
13751.7
13751.7
13751.7
13751.7
13751.7
13751.7
13751.7
-1290.19
3607.5
7105.64
9515.81
11175.9
12329.2
13142.5
13726.4
14149.5
14451.4
14655
14775.9
14828.1
14825.7
14783.1
14713.9
14629.7
14539.9
14451.3
14367.9
14290.7
14218.6
14158.4
14105.1
14058.1
14016.3
13979.1
13946
13916.6
13890.6
13867.7
13847.8
13830.5
13815.8
13803.2
13792.7
13784
13776.9
13771.1
13766.5
13762.8
13760
13757.8
13756.1
13754.8
13753.9
13753.2
13752.8
13752.4
13752.2
13752
13751.9
13751.8
13751.8
13751.7
13751.7
13751.7
13751.7
13751.7
13751.7
13751.7
13751.7
13751.7
13751.7
13751.7
13751.7
13751.7
13751.7
13751.7
13751.7
13751.7
13751.7
13751.7
13751.7
13751.7
13751.7
13751.7
13751.7
13751.7
13751.7
13751.7
13751.7
13751.7
13751.7
13751.7
13751.7
13751.7
13751.7
13751.7
13751.7
13751.7
13751.7
13751.7
13751.7
13751.7
13751.7
13751.7
13751.7
13751.7
13751.7
13751.7
13751.7
13751.7
13751.7
13751.7
-1415.84
3493.81
7020.93
9460.14
11145.2
12318.9
13149.3
13748.3
14185.4
14499.8
14713.9
14842.4
14898.7
14897.2
14852.5
14778.9
14688.8
14592.3
14496.9
14407.3
14324.9
14246.9
14182.3
14125.4
14075.2
14030.7
13991.2
13956.2
13925
13897.5
13873.4
13852.3
13834.2
13818.6
13805.5
13794.5
13785.3
13777.9
13771.8
13767
13763.2
13760.2
13757.9
13756.2
13754.9
13754
13753.3
13752.8
13752.4
13752.2
13752
13751.9
13751.8
13751.8
13751.7
13751.7
13751.7
13751.7
13751.7
13751.7
13751.7
13751.7
13751.7
13751.7
13751.7
13751.7
13751.7
13751.7
13751.7
13751.7
13751.7
13751.7
13751.7
13751.7
13751.7
13751.7
13751.7
13751.7
13751.7
13751.7
13751.7
13751.7
13751.7
13751.7
13751.7
13751.7
13751.7
13751.7
13751.7
13751.7
13751.7
13751.7
13751.7
13751.7
13751.7
13751.7
13751.7
13751.7
13751.7
13751.7
13751.7
13751.7
13751.7
13751.7
13751.7
-1520.6
3410.73
6967.55
9432.37
11137.5
12326.5
13169.3
13779.4
14227.2
14551.9
14775
14910.4
14970.8
14970.3
14923.7
14845.8
14749.9
14646.6
14544.1
14448
14360.8
14276.4
14207.2
14146.4
14092.9
14045.7
14003.8
13966.7
13933.7
13904.7
13879.2
13857.1
13838
13821.6
13807.8
13796.3
13786.7
13778.9
13772.6
13767.6
13763.6
13760.5
13758.1
13756.3
13755
13754
13753.3
13752.8
13752.4
13752.2
13752
13751.9
13751.8
13751.8
13751.7
13751.7
13751.7
13751.7
13751.7
13751.7
13751.7
13751.7
13751.7
13751.7
13751.7
13751.7
13751.7
13751.7
13751.7
13751.7
13751.7
13751.7
13751.7
13751.7
13751.7
13751.7
13751.7
13751.7
13751.7
13751.7
13751.7
13751.7
13751.7
13751.7
13751.7
13751.7
13751.7
13751.7
13751.7
13751.7
13751.7
13751.7
13751.7
13751.7
13751.7
13751.7
13751.7
13751.7
13751.7
13751.7
13751.7
13751.7
13751.7
13751.7
13751.7
-1608.76
3351.81
6939.73
9428.52
11150.6
12351.4
13202.9
13820.7
14276.4
14609.2
14839.9
14981.2
15045.2
15045.5
14997.1
14915.1
14813.1
14702.9
14593.2
14490.1
14399.4
14306.9
14233
14168.1
14111.3
14061.2
14016.8
13977.5
13942.8
13912.1
13885.3
13862
13841.9
13824.7
13810.2
13798.1
13788.1
13780
13773.4
13768.1
13764
13760.8
13758.3
13756.5
13755.1
13754.1
13753.3
13752.8
13752.4
13752.2
13752
13751.9
13751.8
13751.8
13751.7
13751.7
13751.7
13751.7
13751.7
13751.7
13751.7
13751.7
13751.7
13751.7
13751.7
13751.7
13751.7
13751.7
13751.7
13751.7
13751.7
13751.7
13751.7
13751.7
13751.7
13751.7
13751.7
13751.7
13751.7
13751.7
13751.7
13751.7
13751.7
13751.7
13751.7
13751.7
13751.7
13751.7
13751.7
13751.7
13751.7
13751.7
13751.7
13751.7
13751.7
13751.7
13751.7
13751.7
13751.7
13751.7
13751.7
13751.7
13751.7
13751.7
13751.7
-1683.29
3312.55
6933.16
9445.27
11182.5
12392.6
13250.1
13873
14334
14672.8
14909.3
15055.5
15122.6
15123.5
15073.1
14986.8
14878.9
14761.5
14644.2
14532.9
14441.4
14338.7
14259.8
14190.7
14130.3
14077.2
14030.3
13988.8
13952.2
13919.9
13891.6
13867.1
13846
13828
13812.8
13800.1
13789.6
13781.1
13774.2
13768.7
13764.4
13761.1
13758.5
13756.6
13755.2
13754.1
13753.4
13752.8
13752.5
13752.2
13752
13751.9
13751.8
13751.8
13751.7
13751.7
13751.7
13751.7
13751.7
13751.7
13751.7
13751.7
13751.7
13751.7
13751.7
13751.7
13751.7
13751.7
13751.7
13751.7
13751.7
13751.7
13751.7
13751.7
13751.7
13751.7
13751.7
13751.7
13751.7
13751.7
13751.7
13751.7
13751.7
13751.7
13751.7
13751.7
13751.7
13751.7
13751.7
13751.7
13751.7
13751.7
13751.7
13751.7
13751.7
13751.7
13751.7
13751.7
13751.7
13751.7
13751.7
13751.7
13751.7
13751.7
13751.7
-1746.1
3289.82
6944.65
9479.94
11231.2
12448.8
13310.2
13936.1
14400.4
14743.3
14984.2
15134.1
15203.5
15204.6
15152.1
15061.4
14947.3
14822.7
14697.6
14579.3
14471
14371.7
14287.6
14214.2
14150.1
14093.9
14044.3
14000.6
13961.9
13927.9
13898.2
13872.4
13850.2
13831.3
13815.4
13802.1
13791.1
13782.2
13775
13769.3
13764.8
13761.4
13758.7
13756.8
13755.3
13754.2
13753.4
13752.9
13752.5
13752.2
13752
13751.9
13751.8
13751.8
13751.7
13751.7
13751.7
13751.7
13751.7
13751.7
13751.7
13751.7
13751.7
13751.7
13751.7
13751.7
13751.7
13751.7
13751.7
13751.7
13751.7
13751.7
13751.7
13751.7
13751.7
13751.7
13751.7
13751.7
13751.7
13751.7
13751.7
13751.7
13751.7
13751.7
13751.7
13751.7
13751.7
13751.7
13751.7
13751.7
13751.7
13751.7
13751.7
13751.7
13751.7
13751.7
13751.7
13751.7
13751.7
13751.7
13751.7
13751.7
13751.7
13751.7
13751.7
-1798.44
3281.37
6971.78
9530.41
11295
12518.9
13382.8
14009.8
14475.8
14821.1
15064.8
15217.4
15288.4
15289.2
15234.3
15139
15018.6
14886.5
14753.4
14627.1
14514.5
14406.1
14316.6
14238.6
14170.7
14111.2
14058.9
14012.8
13972.1
13936.3
13905
13877.9
13854.6
13834.8
13818.1
13804.2
13792.7
13783.4
13775.9
13769.9
13765.3
13761.7
13759
13756.9
13755.4
13754.3
13753.5
13752.9
13752.5
13752.2
13752
13751.9
13751.8
13751.8
13751.7
13751.7
13751.7
13751.7
13751.7
13751.7
13751.7
13751.7
13751.7
13751.7
13751.7
13751.7
13751.7
13751.7
13751.7
13751.7
13751.7
13751.7
13751.7
13751.7
13751.7
13751.7
13751.7
13751.7
13751.7
13751.7
13751.7
13751.7
13751.7
13751.7
13751.7
13751.7
13751.7
13751.7
13751.7
13751.7
13751.7
13751.7
13751.7
13751.7
13751.7
13751.7
13751.7
13751.7
13751.7
13751.7
13751.7
13751.7
13751.7
13751.7
13751.7
-1841.18
3285.56
7012.72
9594.95
11372.5
12601.9
13467.1
14094
14560
14906.2
15151.6
15305.8
15377.6
15377.7
15320
15219.9
15092.9
14953.1
14811.7
14676.6
14566.4
14442
14346.7
14264
14192
14129.2
14074
14025.4
13982.6
13945
13912.1
13883.7
13859.2
13838.4
13820.9
13806.3
13794.3
13784.6
13776.8
13770.6
13765.8
13762
13759.2
13757.1
13755.5
13754.3
13753.5
13752.9
13752.5
13752.2
13752
13751.9
13751.8
13751.8
13751.7
13751.7
13751.7
13751.7
13751.7
13751.7
13751.7
13751.7
13751.7
13751.7
13751.7
13751.7
13751.7
13751.7
13751.7
13751.7
13751.7
13751.7
13751.7
13751.7
13751.7
13751.7
13751.7
13751.7
13751.7
13751.7
13751.7
13751.7
13751.7
13751.7
13751.7
13751.7
13751.7
13751.7
13751.7
13751.7
13751.7
13751.7
13751.7
13751.7
13751.7
13751.7
13751.7
13751.7
13751.7
13751.7
13751.7
13751.7
13751.7
13751.7
13751.7
-1874.91
3301.12
7065.99
9672.17
11462.5
12696.8
13562.4
14188.1
14653.1
14998.9
15244.7
15399.6
15471.4
15470.3
15409.5
15304.4
15170.6
15022.7
14872.6
14729.8
14601.4
14479.5
14378.2
14290.4
14214.2
14147.9
14089.7
14038.6
13993.5
13954
13919.5
13889.7
13864
13842.2
13823.9
13808.6
13796.1
13785.9
13777.7
13771.3
13766.2
13762.4
13759.4
13757.2
13755.6
13754.4
13753.5
13752.9
13752.5
13752.2
13752
13751.9
13751.8
13751.8
13751.7
13751.7
13751.7
13751.7
13751.7
13751.7
13751.7
13751.7
13751.7
13751.7
13751.7
13751.7
13751.7
13751.7
13751.7
13751.7
13751.7
13751.7
13751.7
13751.7
13751.7
13751.7
13751.7
13751.7
13751.7
13751.7
13751.7
13751.7
13751.7
13751.7
13751.7
13751.7
13751.7
13751.7
13751.7
13751.7
13751.7
13751.7
13751.7
13751.7
13751.7
13751.7
13751.7
13751.7
13751.7
13751.7
13751.7
13751.7
13751.7
13751.7
13751.7
-1900.04
3327.1
7130.45
9760.92
11564
12802.8
13668.2
14291.8
14754.6
15099.1
15344.2
15498.8
15570
15567.2
15503.1
15392.7
15251.8
15095.5
14936.5
14784.5
14645.8
14518.6
14411
14317.9
14237.3
14167.3
14106
14052.2
14004.9
13963.4
13927.2
13895.9
13869
13846.1
13826.9
13810.9
13797.8
13787.2
13778.7
13772
13766.7
13762.7
13759.6
13757.4
13755.7
13754.5
13753.6
13753
13752.5
13752.2
13752
13751.9
13751.8
13751.8
13751.7
13751.7
13751.7
13751.7
13751.7
13751.7
13751.7
13751.7
13751.7
13751.7
13751.7
13751.7
13751.7
13751.7
13751.7
13751.7
13751.7
13751.7
13751.7
13751.7
13751.7
13751.7
13751.7
13751.7
13751.7
13751.7
13751.7
13751.7
13751.7
13751.7
13751.7
13751.7
13751.7
13751.7
13751.7
13751.7
13751.7
13751.7
13751.7
13751.7
13751.7
13751.7
13751.7
13751.7
13751.7
13751.7
13751.7
13751.7
13751.7
13751.7
13751.7
-1916.85
3362.71
7205.15
9860.23
11676
12919
13783.7
14404.6
14864.5
15206.7
15450.2
15603.7
15673.7
15668.8
15601
15484.9
15336.7
15171.7
15003.4
14842.2
14703.8
14559.6
14445.3
14346.6
14261.4
14187.5
14123.1
14066.5
14016.8
13973.2
13935.3
13902.4
13874.2
13850.2
13830.1
13813.4
13799.7
13788.6
13779.7
13772.7
13767.2
13763.1
13759.9
13757.5
13755.8
13754.5
13753.6
13753
13752.6
13752.2
13752
13751.9
13751.8
13751.8
13751.7
13751.7
13751.7
13751.7
13751.7
13751.7
13751.7
13751.7
13751.7
13751.7
13751.7
13751.7
13751.7
13751.7
13751.7
13751.7
13751.7
13751.7
13751.7
13751.7
13751.7
13751.7
13751.7
13751.7
13751.7
13751.7
13751.7
13751.7
13751.7
13751.7
13751.7
13751.7
13751.7
13751.7
13751.7
13751.7
13751.7
13751.7
13751.7
13751.7
13751.7
13751.7
13751.7
13751.7
13751.7
13751.7
13751.7
13751.7
13751.7
13751.7
13751.7
-1925.51
3407.35
7289.29
9969.27
11797.8
13044.8
13908.5
14526.2
14982.4
15321.5
15562.7
15714.4
15782.6
15775.1
15703.3
15581.5
15425.5
15251.5
15073.4
14902.1
14756.4
14602.5
14481.2
14376.6
14286.6
14208.7
14140.8
14081.3
14029.2
13983.5
13943.6
13909.2
13879.6
13854.5
13833.4
13815.9
13801.6
13790
13780.7
13773.4
13767.8
13763.4
13760.1
13757.7
13755.9
13754.6
13753.7
13753
13752.6
13752.3
13752
13751.9
13751.8
13751.8
13751.7
13751.7
13751.7
13751.7
13751.7
13751.7
13751.7
13751.7
13751.7
13751.7
13751.7
13751.7
13751.7
13751.7
13751.7
13751.7
13751.7
13751.7
13751.7
13751.7
13751.7
13751.7
13751.7
13751.7
13751.7
13751.7
13751.7
13751.7
13751.7
13751.7
13751.7
13751.7
13751.7
13751.7
13751.7
13751.7
13751.7
13751.7
13751.7
13751.7
13751.7
13751.7
13751.7
13751.7
13751.7
13751.7
13751.7
13751.7
13751.7
13751.7
13751.7
-1926.15
3460.49
7382.2
10087.3
11928.7
13179.7
14042
14656.1
15108.2
15443.4
15681.6
15831
15896.9
15886.5
15810.4
15682.4
15518.6
15335.3
15147.1
14965.6
14796.7
14647.5
14518.8
14408
14312.9
14230.7
14159.3
14096.9
14042.1
13994.1
13952.4
13916.2
13885.2
13858.9
13836.9
13818.6
13803.6
13791.5
13781.8
13774.2
13768.3
13763.8
13760.4
13757.9
13756
13754.7
13753.7
13753
13752.6
13752.3
13752.1
13751.9
13751.8
13751.8
13751.7
13751.7
13751.7
13751.7
13751.7
13751.7
13751.7
13751.7
13751.7
13751.7
13751.7
13751.7
13751.7
13751.7
13751.7
13751.7
13751.7
13751.7
13751.7
13751.7
13751.7
13751.7
13751.7
13751.7
13751.7
13751.7
13751.7
13751.7
13751.7
13751.7
13751.7
13751.7
13751.7
13751.7
13751.7
13751.7
13751.7
13751.7
13751.7
13751.7
13751.7
13751.7
13751.7
13751.7
13751.7
13751.7
13751.7
13751.7
13751.7
13751.7
13751.7
-1918.82
3521.71
7483.3
10213.8
12068.2
13323
14183.8
14793.9
15241.4
15572.3
15806.9
15953.4
16016.6
16003
15922.4
15788.2
15616.2
15423.1
15224.4
15032.6
14864.1
14694.8
14558.3
14441
14340.4
14253.8
14178.7
14113
14055.6
14005.3
13961.5
13923.6
13891.1
13863.6
13840.5
13821.4
13805.7
13793.1
13783
13775
13768.9
13764.2
13760.7
13758
13756.1
13754.7
13753.8
13753.1
13752.6
13752.3
13752.1
13751.9
13751.8
13751.8
13751.7
13751.7
13751.7
13751.7
13751.7
13751.7
13751.7
13751.7
13751.7
13751.7
13751.7
13751.7
13751.7
13751.7
13751.7
13751.7
13751.7
13751.7
13751.7
13751.7
13751.7
13751.7
13751.7
13751.7
13751.7
13751.7
13751.7
13751.7
13751.7
13751.7
13751.7
13751.7
13751.7
13751.7
13751.7
13751.7
13751.7
13751.7
13751.7
13751.7
13751.7
13751.7
13751.7
13751.7
13751.7
13751.7
13751.7
13751.7
13751.7
13751.7
13751.7
-1903.52
3590.64
7592.1
10348.1
12215.6
13474.3
14333.5
14939.4
15381.9
15708.1
15938.6
16081.7
16142
16124.9
16039.6
15898.8
15718.4
15515.3
15305.5
15101.5
14933.2
14744.5
14599.8
14475.5
14369.2
14277.9
14198.9
14130
14069.6
14016.9
13971
13931.3
13897.3
13868.4
13844.3
13824.2
13807.9
13794.7
13784.1
13775.9
13769.5
13764.6
13761
13758.2
13756.2
13754.8
13753.8
13753.1
13752.6
13752.3
13752.1
13751.9
13751.8
13751.8
13751.7
13751.7
13751.7
13751.7
13751.7
13751.7
13751.7
13751.7
13751.7
13751.7
13751.7
13751.7
13751.7
13751.7
13751.7
13751.7
13751.7
13751.7
13751.7
13751.7
13751.7
13751.7
13751.7
13751.7
13751.7
13751.7
13751.7
13751.7
13751.7
13751.7
13751.7
13751.7
13751.7
13751.7
13751.7
13751.7
13751.7
13751.7
13751.7
13751.7
13751.7
13751.7
13751.7
13751.7
13751.7
13751.7
13751.7
13751.7
13751.7
13751.7
13751.7
-1880.21
3666.98
7708.13
10489.8
12370.5
13633.1
14490.7
15092.3
15529.5
15850.5
16076.6
16216.1
16273.1
16252.4
16162.2
16014.7
15825.6
15612.1
15391
15176.3
14973.4
14796.9
14643.4
14511.8
14399.5
14303.3
14220.1
14147.7
14084.4
14029.1
13980.9
13939.3
13903.7
13873.5
13848.2
13827.3
13810.1
13796.3
13785.4
13776.8
13770.1
13765
13761.2
13758.4
13756.4
13754.9
13753.9
13753.1
13752.6
13752.3
13752.1
13751.9
13751.8
13751.8
13751.7
13751.7
13751.7
13751.7
13751.7
13751.7
13751.7
13751.7
13751.7
13751.7
13751.7
13751.7
13751.7
13751.7
13751.7
13751.7
13751.7
13751.7
13751.7
13751.7
13751.7
13751.7
13751.7
13751.7
13751.7
13751.7
13751.7
13751.7
13751.7
13751.7
13751.7
13751.7
13751.7
13751.7
13751.7
13751.7
13751.7
13751.7
13751.7
13751.7
13751.7
13751.7
13751.7
13751.7
13751.7
13751.7
13751.7
13751.7
13751.7
13751.7
13751.7
-1848.83
3750.45
7831.01
10638.4
12532.4
13799.1
14655
15252.1
15683.8
15999.4
16220.9
16356.5
16410
16385.5
16290.3
16136
15938
15713.9
15481
15254.2
15051.2
14852.2
14689.5
14550.1
14431.3
14329.8
14242.3
14166.2
14099.8
14041.8
13991.3
13947.7
13910.4
13878.8
13852.3
13830.4
13812.5
13798.1
13786.6
13777.7
13770.7
13765.5
13761.5
13758.6
13756.5
13755
13753.9
13753.2
13752.6
13752.3
13752.1
13751.9
13751.8
13751.8
13751.7
13751.7
13751.7
13751.7
13751.7
13751.7
13751.7
13751.7
13751.7
13751.7
13751.7
13751.7
13751.7
13751.7
13751.7
13751.7
13751.7
13751.7
13751.7
13751.7
13751.7
13751.7
13751.7
13751.7
13751.7
13751.7
13751.7
13751.7
13751.7
13751.7
13751.7
13751.7
13751.7
13751.7
13751.7
13751.7
13751.7
13751.7
13751.7
13751.7
13751.7
13751.7
13751.7
13751.7
13751.7
13751.7
13751.7
13751.7
13751.7
13751.7
13751.7
-1809.28
3840.83
7960.37
10793.6
12701
13971.8
14826.1
15418.7
15844.8
16154.8
16371.4
16503
16553
16524.6
16424.3
16263
16056
15821
15575.8
15335.3
15134.4
14910.7
14738.1
14590.4
14464.8
14357.7
14265.6
14185.7
14116
14055.1
14002.2
13956.5
13917.4
13884.3
13856.6
13833.7
13815
13799.9
13788
13778.6
13771.4
13765.9
13761.8
13758.8
13756.6
13755.1
13754
13753.2
13752.7
13752.3
13752.1
13751.9
13751.8
13751.8
13751.7
13751.7
13751.7
13751.7
13751.7
13751.7
13751.7
13751.7
13751.7
13751.7
13751.7
13751.7
13751.7
13751.7
13751.7
13751.7
13751.7
13751.7
13751.7
13751.7
13751.7
13751.7
13751.7
13751.7
13751.7
13751.7
13751.7
13751.7
13751.7
13751.7
13751.7
13751.7
13751.7
13751.7
13751.7
13751.7
13751.7
13751.7
13751.7
13751.7
13751.7
13751.7
13751.7
13751.7
13751.7
13751.7
13751.7
13751.7
13751.7
13751.7
13751.7
-1761.4
3937.93
8095.89
10954.8
12875.9
14150.9
15003.7
15591.7
16012.1
16316.4
16528
16655.6
16702
16669.7
16564.3
16396
16179.8
15933.6
15675.8
15423.3
15185.3
14972.6
14789.5
14633
14500.1
14387.1
14290.1
14206.1
14132.9
14069.1
14013.6
13965.7
13924.8
13890.1
13861.1
13837.1
13817.5
13801.8
13789.3
13779.6
13772.1
13766.4
13762.2
13759
13756.8
13755.1
13754
13753.2
13752.7
13752.3
13752.1
13751.9
13751.8
13751.8
13751.7
13751.7
13751.7
13751.7
13751.7
13751.7
13751.7
13751.7
13751.7
13751.7
13751.7
13751.7
13751.7
13751.7
13751.7
13751.7
13751.7
13751.7
13751.7
13751.7
13751.7
13751.7
13751.7
13751.7
13751.7
13751.7
13751.7
13751.7
13751.7
13751.7
13751.7
13751.7
13751.7
13751.7
13751.7
13751.7
13751.7
13751.7
13751.7
13751.7
13751.7
13751.7
13751.7
13751.7
13751.7
13751.7
13751.7
13751.7
13751.7
13751.7
13751.7
-1705.04
4041.58
8237.26
11121.9
13056.7
14336.1
15187.5
15771
16185.6
16484.2
16690.9
16814.5
16857.3
16821.1
16710.5
16535.2
16309.7
16052.1
15781.5
15515
15272.6
15038.3
14844
14678.1
14537.4
14418
14315.8
14227.5
14150.7
14083.7
14025.6
13975.4
13932.5
13896.2
13865.8
13840.7
13820.2
13803.8
13790.8
13780.6
13772.8
13766.9
13762.5
13759.2
13756.9
13755.2
13754.1
13753.3
13752.7
13752.3
13752.1
13751.9
13751.8
13751.8
13751.7
13751.7
13751.7
13751.7
13751.7
13751.7
13751.7
13751.7
13751.7
13751.7
13751.7
13751.7
13751.7
13751.7
13751.7
13751.7
13751.7
13751.7
13751.7
13751.7
13751.7
13751.7
13751.7
13751.7
13751.7
13751.7
13751.7
13751.7
13751.7
13751.7
13751.7
13751.7
13751.7
13751.7
13751.7
13751.7
13751.7
13751.7
13751.7
13751.7
13751.7
13751.7
13751.7
13751.7
13751.7
13751.7
13751.7
13751.7
13751.7
13751.7
13751.7
-1639.98
4151.64
8384.2
11294.5
13243.1
14527.2
15377.3
15956.3
16365.2
16658.1
16859.8
16979.5
17018.9
16978.9
16863.2
16680.9
16446.1
16177
15893
15611.5
15372.1
15108
14901.9
14725.8
14576.8
14450.6
14342.9
14250
14169.3
14099.1
14038.1
13985.5
13940.5
13902.5
13870.7
13844.4
13823
13805.9
13792.3
13781.7
13773.5
13767.4
13762.8
13759.5
13757
13755.3
13754.1
13753.3
13752.7
13752.3
13752.1
13751.9
13751.8
13751.8
13751.7
13751.7
13751.7
13751.7
13751.7
13751.7
13751.7
13751.7
13751.7
13751.7
13751.7
13751.7
13751.7
13751.7
13751.7
13751.7
13751.7
13751.7
13751.7
13751.7
13751.7
13751.7
13751.7
13751.7
13751.7
13751.7
13751.7
13751.7
13751.7
13751.7
13751.7
13751.7
13751.7
13751.7
13751.7
13751.7
13751.7
13751.7
13751.7
13751.7
13751.7
13751.7
13751.7
13751.7
13751.7
13751.7
13751.7
13751.7
13751.7
13751.7
13751.7
-1565.99
4267.99
8536.45
11472.2
13434.9
14723.8
15572.8
16147.4
16550.6
16837.9
17034.9
17150.8
17186.8
17143.1
17022.5
16833.3
16589.2
16308.5
16011.1
15716.1
15436.9
15182.2
14963.4
14776.5
14618.5
14485
14371.4
14273.7
14188.9
14115.2
14051.3
13996.1
13949
13909.1
13875.8
13848.3
13826
13808
13793.8
13782.8
13774.3
13767.9
13763.2
13759.7
13757.2
13755.4
13754.2
13753.3
13752.7
13752.4
13752.1
13751.9
13751.8
13751.8
13751.7
13751.7
13751.7
13751.7
13751.7
13751.7
13751.7
13751.7
13751.7
13751.7
13751.7
13751.7
13751.7
13751.7
13751.7
13751.7
13751.7
13751.7
13751.7
13751.7
13751.7
13751.7
13751.7
13751.7
13751.7
13751.7
13751.7
13751.7
13751.7
13751.7
13751.7
13751.7
13751.7
13751.7
13751.7
13751.7
13751.7
13751.7
13751.7
13751.7
13751.7
13751.7
13751.7
13751.7
13751.7
13751.7
13751.7
13751.7
13751.7
13751.7
13751.7
-1482.79
4390.54
8693.77
11654.9
13631.8
14925.7
15773.8
16344.2
16741.8
17023.6
17216.1
17328.3
17361.3
17314
17188.7
16992.7
16739.5
16447.3
16136.1
15825.5
15538.8
15261.2
15028.9
14830.3
14662.7
14521.4
14401.5
14298.6
14209.5
14132.2
14065.1
14007.3
13957.8
13916.1
13881.2
13852.4
13829
13810.2
13795.4
13783.9
13775.1
13768.4
13763.5
13759.9
13757.3
13755.5
13754.2
13753.3
13752.8
13752.4
13752.1
13751.9
13751.8
13751.8
13751.7
13751.7
13751.7
13751.7
13751.7
13751.7
13751.7
13751.7
13751.7
13751.7
13751.7
13751.7
13751.7
13751.7
13751.7
13751.7
13751.7
13751.7
13751.7
13751.7
13751.7
13751.7
13751.7
13751.7
13751.7
13751.7
13751.7
13751.7
13751.7
13751.7
13751.7
13751.7
13751.7
13751.7
13751.7
13751.7
13751.7
13751.7
13751.7
13751.7
13751.7
13751.7
13751.7
13751.7
13751.7
13751.7
13751.7
13751.7
13751.7
13751.7
13751.7
-1390.07
4519.21
8855.92
11842.1
13833.5
15132.8
15980.1
16546.5
16938.7
17215.2
17403.4
17512.2
17542.2
17491.7
17361.8
17159.4
16897.3
16593.5
16268.3
15941.3
15657.2
15345.5
15098.7
14887.6
14709.6
14559.9
14433.2
14324.8
14231.2
14150
14079.6
14018.9
13967.1
13923.4
13886.8
13856.7
13832.2
13812.6
13797.1
13785.1
13775.9
13769
13763.9
13760.1
13757.5
13755.6
13754.3
13753.4
13752.8
13752.4
13752.1
13751.9
13751.8
13751.8
13751.7
13751.7
13751.7
13751.7
13751.7
13751.7
13751.7
13751.7
13751.7
13751.7
13751.7
13751.7
13751.7
13751.7
13751.7
13751.7
13751.7
13751.7
13751.7
13751.7
13751.7
13751.7
13751.7
13751.7
13751.7
13751.7
13751.7
13751.7
13751.7
13751.7
13751.7
13751.7
13751.7
13751.7
13751.7
13751.7
13751.7
13751.7
13751.7
13751.7
13751.7
13751.7
13751.7
13751.7
13751.7
13751.7
13751.7
13751.7
13751.7
13751.7
13751.7
-1287.46
4653.97
9022.69
12033.8
14039.8
15344.8
16191.7
16754.2
17141.1
17412.6
17596.7
17702.4
17729.7
17676.2
17542.1
17333.6
17063
16747.8
16408.7
16067
15739
15435.7
15173.3
14948.7
14759.4
14600.7
14466.8
14352.5
14254
14168.7
14094.8
14031.2
13976.9
13931
13892.7
13861.1
13835.5
13815
13798.9
13786.3
13776.7
13769.6
13764.2
13760.4
13757.6
13755.7
13754.3
13753.4
13752.8
13752.4
13752.1
13751.9
13751.8
13751.8
13751.7
13751.7
13751.7
13751.7
13751.7
13751.7
13751.7
13751.7
13751.7
13751.7
13751.7
13751.7
13751.7
13751.7
13751.7
13751.7
13751.7
13751.7
13751.7
13751.7
13751.7
13751.7
13751.7
13751.7
13751.7
13751.7
13751.7
13751.7
13751.7
13751.7
13751.7
13751.7
13751.7
13751.7
13751.7
13751.7
13751.7
13751.7
13751.7
13751.7
13751.7
13751.7
13751.7
13751.7
13751.7
13751.7
13751.7
13751.7
13751.7
13751.7
13751.7
-1174.54
4794.79
9193.87
12229.6
14250.4
15561.5
16408.3
16967.1
17349.1
17615.8
17796
17898.9
17923.8
17867.6
17729.7
17515.6
17236.8
16910.6
16557.6
16199
15863.4
15532.2
15253.1
15013.9
14812.4
14643.9
14502.2
14381.7
14278.1
14188.4
14110.9
14044.1
13987.1
13939
13898.9
13865.8
13839
13817.6
13800.7
13787.6
13777.6
13770.1
13764.6
13760.6
13757.8
13755.8
13754.4
13753.4
13752.8
13752.4
13752.1
13751.9
13751.8
13751.8
13751.7
13751.7
13751.7
13751.7
13751.7
13751.7
13751.7
13751.7
13751.7
13751.7
13751.7
13751.7
13751.7
13751.7
13751.7
13751.7
13751.7
13751.7
13751.7
13751.7
13751.7
13751.7
13751.7
13751.7
13751.7
13751.7
13751.7
13751.7
13751.7
13751.7
13751.7
13751.7
13751.7
13751.7
13751.7
13751.7
13751.7
13751.7
13751.7
13751.7
13751.7
13751.7
13751.7
13751.7
13751.7
13751.7
13751.7
13751.7
13751.7
13751.7
13751.7
-1050.85
4941.66
9369.27
12429.3
14465.3
15782.8
16629.9
17185.3
17562.6
17824.8
18001.4
18101.7
18124.5
18065.9
17924.7
17705.5
17419.3
17082.5
16715.4
16339
16003.4
15635.6
15338.7
15083.6
14868.9
14689.8
14539.7
14412.5
14303.4
14209.2
14127.7
14057.7
13997.9
13947.4
13905.3
13870.7
13842.6
13820.2
13802.6
13788.9
13778.5
13770.7
13765
13760.9
13757.9
13755.9
13754.4
13753.5
13752.8
13752.4
13752.1
13751.9
13751.8
13751.8
13751.7
13751.7
13751.7
13751.7
13751.7
13751.7
13751.7
13751.7
13751.7
13751.7
13751.7
13751.7
13751.7
13751.7
13751.7
13751.7
13751.7
13751.7
13751.7
13751.7
13751.7
13751.7
13751.7
13751.7
13751.7
13751.7
13751.7
13751.7
13751.7
13751.7
13751.7
13751.7
13751.7
13751.7
13751.7
13751.7
13751.7
13751.7
13751.7
13751.7
13751.7
13751.7
13751.7
13751.7
13751.7
13751.7
13751.7
13751.7
13751.7
13751.7
13751.7
-915.862
5094.63
9548.71
12632.6
14684.2
16008.7
16856.4
17408.7
17781.5
18039.4
18212.8
18310.7
18331.6
18271.1
18127.2
17903.7
17610.7
17263.9
16883.3
16491.4
16105.8
15746.6
15430.4
15158.2
14929.3
14738.6
14579.5
14445.1
14330.2
14231.1
14145.5
14071.9
14009.2
13956.2
13912.1
13875.8
13846.4
13822.9
13804.5
13790.3
13779.5
13771.4
13765.4
13761.1
13758.1
13756
13754.5
13753.5
13752.8
13752.4
13752.1
13751.9
13751.8
13751.8
13751.7
13751.7
13751.7
13751.7
13751.7
13751.7
13751.7
13751.7
13751.7
13751.7
13751.7
13751.7
13751.7
13751.7
13751.7
13751.7
13751.7
13751.7
13751.7
13751.7
13751.7
13751.7
13751.7
13751.7
13751.7
13751.7
13751.7
13751.7
13751.7
13751.7
13751.7
13751.7
13751.7
13751.7
13751.7
13751.7
13751.7
13751.7
13751.7
13751.7
13751.7
13751.7
13751.7
13751.7
13751.7
13751.7
13751.7
13751.7
13751.7
13751.7
13751.7
-768.956
5253.77
9732.02
12839.5
14906.9
16238.9
17087.7
17637.4
18005.9
18259.8
18430.1
18525.8
18545.1
18483.1
18337.3
18110.4
17811.5
17455.4
17061.3
16651.3
16266.6
15865.9
15529
15238.3
14993.7
14790.6
14621.6