/*--------------------------------*- C++ -*----------------------------------*\
  =========                 |
  \\      /  F ield         | OpenFOAM: The Open Source CFD Toolbox
   \\    /   O peration     | Website:  https://openfoam.org
    \\  /    A nd           | Version:  6
     \\/     M anipulation  |
\*---------------------------------------------------------------------------*/
FoamFile
{
    version     2.0;
    format      ascii;
    class       volScalarField;
    location    "0";
    object      p;
}
// * * * * * * * * * * * * * * * * * * * * * * * * * * * * * * * * * * * * * //

dimensions      [1 -1 -2 0 0 0 0];

internalField   nonuniform List<scalar> 
18060
(
2.53334e+07
2.18917e+07
2.00513e+07
1.54075e+07
1.37424e+07
9.66221e+06
8.2923e+06
5.30491e+06
4.40366e+06
2.60175e+06
2.07204e+06
1.22954e+06
923824
602596
447316
326887
249665
193158
151411
119602
94740.7
75028.8
59172.5
46331.7
35866.8
27303.4
20278.7
14499.5
9739.35
5820
2596.51
-49.6638
-2215.99
-3983.03
-5417.56
-6575.29
-7502.84
-8239.3
-8817.52
-9264.82
-9604.18
-9854.8
-10032.5
-10150.5
-10219.5
-10248.4
-10244.4
-10213
-10158
-10083
-9995.73
-9896.5
-9785.71
-9665.95
-9536.01
-9397.54
-9251.67
-9099.45
-8941.09
-8777.13
-8607.98
-8433.91
-8255.14
-8071.88
-7884.35
-7692.76
-7497.31
-7298.25
-7095.82
-6890.27
-6681.89
-6470.97
-6257.82
-6042.78
-5826.19
-5608.41
-5389.84
-5171.23
-4952.19
-4733.46
-4515.39
-4298.38
-4082.73
-3868.68
-3655.99
-3446.27
-3239.26
-3035.13
-2834.03
-2636.13
-2441.55
-2250.37
-2062.48
-1877.96
-1697.02
-1519.46
-1344.08
-1173.15
-1005.79
-843.048
-683.373
-527.314
-375.881
-229.396
-90.1523
2.21151e+06
-7204
578564
220607
175764
-26483
41367.2
-40729.7
-18542.5
-29565.2
-20664.9
-22872
-15834.9
-15429.4
-12355.6
-12396.1
-11657.8
-11854.4
-11926.7
-12168
-12393.9
-12628.2
-12855.7
-13073
-13269.6
-13450.2
-13628.3
-13798.7
-13958
-14106.3
-14243.2
-14368.2
-14481
-14581.1
-14668.2
-14741.9
-14802.2
-14848.9
-14882.4
-14902.4
-14909.2
-14903.5
-14885.2
-14854.4
-14811.9
-14758
-14692.1
-14614.1
-14523.3
-14422.1
-14319.2
-14204.1
-14077.3
-13940.6
-13793.4
-13636.4
-13469.6
-13293.5
-13108.1
-12913.4
-12709.5
-12496.5
-12274.5
-12043.7
-11804.3
-11556.5
-11300.4
-11036.5
-10764.9
-10486
-10200.3
-9908.1
-9609.89
-9306.17
-8997.46
-8684.33
-8367.37
-8047.55
-7724.78
-7400.06
-7073.97
-6747.13
-6419.99
-6092.95
-5765.22
-5440.46
-5117.9
-4797.82
-4480.55
-4166.4
-3855.62
-3548.44
-3244.57
-2943.12
-2646.68
-2354
-2062.42
-1776.48
-1494.18
-1216.5
-940.335
-667.45
-397.116
-125.372
156.289
-359854
-263717
-118091
-70329.9
-58626.5
-53626.9
-45002.7
-42137
-37082.1
-33353.9
-30040.3
-26702.8
-23581.2
-20991.8
-19094.1
-17632.3
-16614.3
-15871.9
-15348.4
-14967.8
-14689.2
-14479.5
-14309.4
-14161.2
-14046.4
-13974.9
-13926.8
-13891.4
-13866.8
-13851.2
-13842.2
-13837.5
-13834.9
-13832.8
-13829.4
-13823.1
-13813.2
-13798.6
-13778
-13751.4
-13718
-13677.6
-13630
-13574.8
-13511.9
-13441.8
-13363.1
-13274.4
-13180.1
-13081.8
-12978.1
-12863.4
-12740.5
-12610.5
-12472.3
-12326.4
-12173
-12011.5
-11842.3
-11665.2
-11480.4
-11287.9
-11087.5
-10879.5
-10663.9
-10440.7
-10210.2
-9972.47
-9727.72
-9476.2
-9218.2
-8954.02
-8684.03
-8408.61
-8128.21
-7843.27
-7554.15
-7260.99
-6965.31
-6667.27
-6367.34
-6065.98
-5763.58
-5460.5
-5156.13
-4853.46
-4552.03
-4252.09
-3953.91
-3657.77
-3363.9
-3072.49
-2783.14
-2493.58
-2208.73
-1926.45
-1644.37
-1365.51
-1088.03
-810.49
-531.492
-253.021
30.8789
329.722
681.966
-215157
-104993
-73152
-88537.5
-88110
-69930.4
-57989.2
-50301.8
-45372.4
-40819.3
-37100.6
-33563.3
-30425.6
-27466.6
-24986.8
-22902.7
-21254.3
-19934.8
-18882.2
-18019.1
-17292.4
-16673.3
-16167.5
-15762.7
-15426.3
-15136.9
-14888.4
-14673.8
-14488.1
-14326.6
-14184.8
-14059
-13945.8
-13842.2
-13745.6
-13653.9
-13565.4
-13478.4
-13391.3
-13303.7
-13214.1
-13121.6
-13026.3
-12927.6
-12824.4
-12716.5
-12602.4
-12483
-12361.8
-12243
-12116.3
-11978.8
-11837
-11690.7
-11538.8
-11381.5
-11218.8
-11050.2
-10875.7
-10695.5
-10509.3
-10317.3
-10119.3
-9915.38
-9705.53
-9489.8
-9268.26
-9041.01
-8808.17
-8569.91
-8326.43
-8077.95
-7824.76
-7567.14
-7305.45
-7040.04
-6771.16
-6498.72
-6224.3
-5947.93
-5670
-5390.85
-5110.87
-4830.25
-4549.12
-4268.74
-3989.28
-3710.97
-3434.05
-3158.7
-2885.07
-2613.25
-2342.85
-2072.17
-1804.46
-1538.31
-1272.37
-1007.25
-741.565
-473.112
-201.253
74.0668
362.754
672.379
1065.41
-152029
-128176
-125995
-123502
-101551
-84808.6
-71941.9
-62016.1
-54416.9
-48295
-43217.6
-38887.8
-35169.9
-31948.8
-29184.8
-26829.8
-24825
-23131.1
-21709.5
-20515.4
-19527.4
-18700.9
-17988.7
-17378.3
-16853.2
-16396.6
-15998.2
-15649.2
-15341.6
-15068.6
-14824.6
-14605.4
-14406.3
-14223.2
-14053.3
-13894
-13743
-13598.1
-13457.7
-13320.4
-13184.9
-13049.9
-12914.8
-12779.7
-12643.2
-12503
-12358.6
-12213.9
-12070.9
-11927.5
-11776.6
-11620.2
-11460.7
-11297.9
-11131.2
-10960.5
-10785.7
-10606.5
-10423
-10235
-10042.4
-9845.11
-9643.14
-9436.41
-9224.91
-9008.63
-8787.6
-8561.89
-8331.56
-8096.73
-7857.56
-7614.21
-7366.91
-7115.89
-6861.43
-6603.85
-6343.4
-6080.24
-5815.07
-5548.23
-5280.07
-5010.9
-4741.06
-4470.73
-4200.19
-3930.13
-3660.83
-3392.5
-3125.33
-2859.43
-2594.89
-2331.72
-2069.56
-1807.6
-1546.95
-1286.9
-1026.48
-765.409
-502.198
-235.251
37.1375
317.114
615.703
937.1
1355.32
-95691.9
-133140
-126371
-112963
-97458.4
-84814.6
-74289.1
-65562.8
-58287
-52173.2
-46955.1
-42460.5
-38563.5
-35192.9
-32280.8
-29762.5
-27587.1
-25710.1
-24092.7
-22701.3
-21506.9
-20479.8
-19587.7
-18810.6
-18131.7
-17535.5
-17009.6
-16544
-16129.5
-15758.4
-15424.1
-15121.3
-14845.2
-14591.3
-14356.1
-14136.3
-13929.2
-13732.9
-13545
-13363.2
-13187.2
-13015.1
-12844.9
-12676.6
-12509.9
-12340.9
-12171.9
-12006.6
-11845.9
-11681.8
-11510
-11337.1
-11162.8
-10986.5
-10807.7
-10626.1
-10441.7
-10254.2
-10063.5
-9869.43
-9671.86
-9470.68
-9265.77
-9057.07
-8844.51
-8628.05
-8407.68
-8183.4
-7955.25
-7723.31
-7487.67
-7248.46
-7005.85
-6760.02
-6511.2
-6259.65
-6005.62
-5749.28
-5491.08
-5231.36
-4970.42
-4708.57
-4446.06
-4183.13
-3920.06
-3657.28
-3395.08
-3133.63
-2873.07
-2613.47
-2354.85
-2097.15
-1840.02
-1582.93
-1326.17
-1069.08
-810.801
-550.742
-287.111
-18.4503
257.519
544.111
852.631
1186.1
1622.02
-84040.6
-109836
-102280
-94408.2
-86846.7
-78964.4
-71553.7
-64813.2
-58774.7
-53412.9
-48663.5
-44454.9
-40723.6
-37417.9
-34499.3
-31930.1
-29674.9
-27698.3
-25968
-24455
-23129.3
-21967.1
-20944.1
-20041
-19241.6
-18532
-17899.9
-17334.7
-16827.1
-16369.2
-15954.1
-15575.8
-15229.3
-14910
-14614.2
-14338.2
-14078.6
-13833.2
-13599.7
-13375.9
-13160.6
-12952.3
-12749
-12549.5
-12352.1
-12156.5
-11967.3
-11780.1
-11596.7
-11412.2
-11223.4
-11034.9
-10846.4
-10657.2
-10466.8
-10275.1
-10081.7
-9886.44
-9689.14
-9489.59
-9287.62
-9083.06
-8875.77
-8665.63
-8452.53
-8236.39
-8017.15
-7794.78
-7569.27
-7340.64
-7108.94
-6874.26
-6636.7
-6396.41
-6153.56
-5908.34
-5660.96
-5411.62
-5160.61
-4908.24
-4654.76
-4400.43
-4145.49
-3890.14
-3634.64
-3379.3
-3124.34
-2869.91
-2616.1
-2362.94
-2110.4
-1858.32
-1606.37
-1354.09
-1101.38
-847.454
-591.515
-332.856
-69.2392
200.815
479.611
771.131
1087.5
1430.34
1878.72
-65337.7
-91759.2
-88515.3
-83892.6
-78721.7
-73227.9
-67758
-62518.9
-57614.2
-53085.6
-48940.8
-45168.8
-41751.1
-38664.8
-35887.1
-33395.6
-31163.8
-29168.6
-27391.1
-25814
-24414.9
-23169.6
-22060.3
-21069.3
-20181.4
-19385.2
-18669.6
-18023.7
-17438.8
-16907.5
-16422.9
-15978.9
-15570.3
-15192.5
-14841.5
-14513.6
-14205.6
-13914.8
-13638.9
-13375.4
-13122.6
-12879.8
-12644.9
-12415
-12188.2
-11967.7
-11755.6
-11550.6
-11345.4
-11138.4
-10932.7
-10728.9
-10526.1
-10323.9
-10122
-9919.92
-9717.46
-9514.33
-9310.28
-9105.09
-8898.53
-8690.41
-8480.54
-8268.76
-8054.93
-7838.91
-7620.61
-7399.96
-7176.89
-6951.4
-6723.47
-6493.16
-6260.51
-6025.63
-5788.63
-5549.66
-5308.86
-5066.43
-4822.57
-4577.54
-4331.54
-4084.78
-3837.46
-3589.78
-3341.93
-3094.14
-2846.58
-2599.35
-2352.51
-2106.04
-1859.84
-1613.71
-1367.29
-1120.09
-871.831
-621.523
-368.51
-112.029
151.179
421.89
701.97
996.575
1318.48
1667.82
2124.27
-52032.7
-79183
-77561.6
-74754.7
-71229.6
-67338.3
-63324.8
-59328.4
-55443.1
-51731.1
-48229.3
-44956.7
-41921.2
-39123
-36557.1
-34215.7
-32085.8
-30151.1
-28395.6
-26807.3
-25380.9
-24097.6
-22938.8
-21893.9
-20948.1
-20090.6
-19312.5
-18604.6
-17959.1
-17368.5
-16826.7
-16327.4
-15865.4
-15436.8
-15037.3
-14663.3
-14311.5
-13979.3
-13664.8
-13365.3
-13078
-12801.9
-12536.3
-12277.7
-12024.5
-11781.7
-11544.5
-11320.7
-11098.1
-10870.2
-10647.2
-10427.9
-10211.1
-9996.23
-9782.82
-9570.53
-9359.02
-9147.98
-8937.13
-8726.19
-8514.91
-8303.06
-8090.42
-7876.78
-7661.96
-7445.8
-7228.16
-7008.93
-6788
-6565.33
-6340.85
-6114.58
-5886.52
-5656.72
-5425.26
-5192.22
-4957.72
-4721.9
-4484.92
-4246.96
-4008.2
-3768.8
-3528.92
-3288.71
-3048.34
-2807.96
-2567.69
-2327.6
-2087.68
-1847.88
-1608.04
-1367.94
-1127.15
-885.123
-641.501
-395.137
-145.557
108.666
372.149
642.195
921.728
1217.94
1543.43
1896.96
2357.73
-42477.4
-69739
-68909.9
-67108
-64672.7
-61880.3
-58912.8
-55865.7
-52811.3
-49808.3
-46899.9
-44115.7
-41476.1
-38993.8
-36675.6
-34523.4
-32533.1
-30698.1
-29012.4
-27468
-26056.8
-24767.6
-23591.5
-22520
-21542
-20646.8
-19827
-19075.1
-18384
-17747.3
-17159.5
-16615
-16109
-15637.4
-15196.4
-14782.5
-14392.4
-14023.4
-13673.3
-13340.8
-13023
-12717.1
-12422
-12135.4
-11859.2
-11597.5
-11342.5
-11091.8
-10845.9
-10603.1
-10365
-10131.2
-9900.96
-9673.78
-9449.26
-9227
-9006.63
-8787.82
-8570.24
-8353.59
-8137.6
-7921.97
-7706.47
-7490.87
-7274.93
-7058.46
-6841.29
-6623.27
-6404.26
-6184.15
-5962.87
-5740.37
-5516.62
-5291.63
-5065.41
-4838.03
-4609.54
-4380.05
-4149.67
-3918.53
-3686.76
-3454.48
-3221.81
-2988.88
-2755.79
-2522.64
-2289.52
-2056.42
-1823.33
-1590.13
-1356.63
-1122.55
-887.42
-650.626
-411.956
-169.993
76.3316
330.657
592.303
858.874
1137.76
1434.65
1762.11
2117.04
2578.31
-35194
-62389.3
-61996.8
-60788.3
-59044.2
-56993.4
-54768.1
-52429.8
-50028
-47610.1
-45214.8
-42872.7
-40608
-38438.7
-36378
-34433.2
-32604.2
-30893.2
-29304.1
-27834
-26457.2
-25199.4
-24033.1
-22960.9
-21970.8
-21057.6
-20213.9
-19434.2
-18711.9
-18041.8
-17419.2
-16839.2
-16297.7
-15790.7
-15314.7
-14867.1
-14444.5
-14043.2
-13662
-13298.8
-12952.7
-12620.8
-12299.3
-11987.8
-11690.1
-11404.8
-11133.2
-10865.6
-10598.2
-10338.3
-10085
-9837.05
-9593.82
-9354.81
-9119.56
-8887.65
-8658.69
-8432.3
-8208.15
-7985.9
-7765.24
-7545.87
-7327.5
-7109.87
-6892.73
-6675.85
-6459.03
-6242.06
-6024.79
-5807.07
-5588.79
-5369.85
-5150.19
-4929.77
-4708.57
-4486.61
-4263.91
-4040.52
-3816.52
-3591.98
-3366.99
-3141.63
-2915.99
-2690.15
-2464.18
-2238.12
-2012.01
-1785.82
-1559.48
-1332.83
-1105.66
-877.632
-648.209
-416.851
-183.786
53.9189
300.424
552.718
808.607
1072.35
1349.68
1646.4
1974.74
2328.83
2787.72
-29385.8
-56497.6
-56370.2
-55530.6
-54232.4
-52684.3
-50985.3
-49171
-47271.6
-45322.5
-43354.8
-41395
-39466.6
-37588.5
-35776.4
-34036.2
-32375.2
-30806
-29330.4
-27945.1
-26618.4
-25415.3
-24288
-23230.8
-22247.4
-21332
-20479.5
-19684.6
-18943.7
-18252
-17605
-16998.8
-16430
-15895.2
-15391.1
-14914.9
-14464
-14035.6
-13627.7
-13238.4
-12865.8
-12508.5
-12162.1
-11830.1
-11516.5
-11211.9
-10919.5
-10632.6
-10348.3
-10072.9
-9805.16
-9543.84
-9288.28
-9037.97
-8792.44
-8551.26
-8314.01
-8080.31
-7849.78
-7622.07
-7396.84
-7173.77
-6952.56
-6732.9
-6514.52
-6297.16
-6080.58
-5864.55
-5648.89
-5433.41
-5217.95
-5002.4
-4786.64
-4570.61
-4354.24
-4137.5
-3920.38
-3702.9
-3485.07
-3266.95
-3048.56
-2829.96
-2611.2
-2392.3
-2173.31
-1954.22
-1735.03
-1515.67
-1296.02
-1075.91
-855.069
-633.136
-409.583
-184.089
43.0889
279.824
525.685
771.788
1022.33
1281.74
1557.3
1853.86
2181.36
2533.02
2987.68
-24616.9
-51663.5
-51708.6
-51102.1
-50098.3
-48897.4
-47575.1
-46148.5
-44633.2
-43054.8
-41436.8
-39798.7
-38163.3
-36544.6
-34953.8
-33409.2
-31922
-30496.7
-29136.8
-27837.8
-26614.4
-25463.4
-24372.5
-23346.5
-22383.2
-21478.6
-20629.3
-19832.2
-19083.4
-18379.7
-17717.8
-17093.8
-16505.2
-15949.3
-15423
-14923.8
-14450
-13999.2
-13568.7
-13157
-12762.3
-12382.4
-12015.5
-11664.6
-11330.9
-11011.3
-10699.4
-10392.9
-10094.6
-9805.39
-9524.24
-9250.37
-8983.18
-8722.18
-8466.89
-8216.87
-7971.69
-7730.96
-7494.29
-7261.31
-7031.66
-6805
-6580.99
-6359.33
-6139.7
-5921.82
-5705.43
-5490.27
-5276.11
-5062.74
-4849.98
-4637.67
-4425.67
-4213.85
-4002.14
-3790.45
-3578.75
-3366.99
-3155.18
-2943.3
-2731.36
-2519.37
-2307.34
-2095.26
-1883.13
-1670.91
-1458.56
-1245.96
-1032.97
-819.397
-604.907
-389.137
-171.839
47.2966
270.475
507.626
749.449
988.45
1231.65
1487.34
1762.06
2057.02
2381.87
2729.68
3178.83
-20610.2
-47615.5
-47780.9
-47328.6
-46520.1
-45563.8
-44514.6
-43376
-42154.2
-40867.6
-39535.1
-38163.3
-36766.8
-35371.9
-33989.9
-32630.2
-31303.1
-30015.3
-28771.7
-27578.1
-26424.6
-25347.4
-24305.4
-23323.2
-22391.3
-21508.7
-20673.2
-19883.2
-19135.7
-18428.4
-17759.2
-17125.4
-16524
-15953.2
-15410.6
-14893.8
-14401
-13931.1
-13482.9
-13053.1
-12639.1
-12239.6
-11857.5
-11492.5
-11134.4
-10797
-10472.2
-10149.5
-9837.21
-9534.8
-9241.15
-8955.56
-8677.49
-8406.43
-8141.94
-7883.56
-7630.87
-7383.46
-7140.93
-6902.91
-6669.02
-6438.9
-6212.21
-5988.6
-5767.76
-5549.37
-5333.14
-5118.79
-4906.07
-4694.73
-4484.57
-4275.38
-4066.99
-3859.27
-3652.07
-3445.29
-3238.85
-3032.68
-2826.73
-2620.95
-2415.32
-2209.81
-2004.39
-1799.02
-1593.65
-1388.22
-1182.63
-976.762
-770.418
-563.377
-355.236
-145.885
64.7042
277.632
500.528
736.553
970.861
1200.03
1436.75
1691.28
1964.05
2255.66
2576.41
2919.32
3361.19
-17182.2
-44169.7
-44412.7
-44070.9
-43403.9
-42621
-41770.2
-40846.1
-39849.1
-38789.7
-37678.3
-36524.6
-35340.6
-34141.6
-32939
-31743
-30562.8
-29405.2
-28277.4
-27186.3
-26081.8
-25085.7
-24119.1
-23182.6
-22287.5
-21434.4
-20620.7
-19845.3
-19106.6
-18402.8
-17733
-17095.5
-16487.8
-15907.6
-15353.9
-14824.6
-14318.2
-13833.3
-13368.2
-12922.3
-12493.5
-12078
-11679.7
-11301.2
-10936.3
-10579.3
-10233.5
-9898.65
-9574.33
-9259.91
-8954.76
-8658.34
-8370.17
-8089.76
-7816.67
-7550.45
-7290.7
-7037
-6788.95
-6546.16
-6308.26
-6074.87
-5845.62
-5620.18
-5398.18
-5179.32
-4963.26
-4749.71
-4538.39
-4329.03
-4121.39
-3915.24
-3710.38
-3506.63
-3303.83
-3101.84
-2900.54
-2699.82
-2499.61
-2299.82
-2100.39
-1901.24
-1702.32
-1503.56
-1304.87
-1106.16
-907.286
-708.114
-508.416
-307.885
-106.156
96.3031
299.72
509.24
733.197
964.911
1187.52
1406.17
1640.92
1893.68
2162.46
2449.5
2765.2
3102.17
3535.17
-14198.8
-41198.9
-41496.8
-41225.8
-40654.6
-39999.4
-39299.3
-38540.4
-37716.6
-36834.9
-35902.2
-34926.3
-33916.4
-32883
-31835.7
-30783.7
-29735.1
-28696.6
-27675.3
-26668.2
-25689.3
-24743.4
-23829
-22942
-22087.8
-21267.6
-20481.7
-19726.4
-19002.1
-18308.3
-17643.9
-17007.5
-16397.9
-15813.7
-15253.6
-14716
-14199.9
-13703.8
-13226.4
-12766.1
-12321.1
-11895.6
-11490.6
-11095.4
-10717.8
-10349.4
-9988.88
-9641.32
-9305.32
-8979.78
-8664.08
-8357.73
-8060.27
-7771.23
-7490.19
-7216.71
-6950.39
-6690.82
-6437.62
-6190.38
-5948.73
-5712.28
-5480.67
-5253.52
-5030.48
-4811.21
-4595.36
-4382.63
-4172.71
-3965.3
-3760.14
-3556.97
-3355.56
-3155.71
-2957.22
-2759.93
-2563.67
-2368.31
-2173.73
-1979.82
-1786.48
-1593.61
-1401.11
-1208.88
-1016.8
-824.739
-632.546
-440.067
-247.013
-52.9569
142.207
337.185
533.817
743.684
968.041
1188.89
1397
1611.29
1844.81
2093.39
2356.98
2638.77
2948.51
3278.55
3701.36
-11563.5
-38604.3
-38942.1
-38718.1
-38213.7
-37653.3
-37066.7
-36433.4
-35744.2
-35003.1
-34214.4
-33383.3
-32516.8
-31622.7
-30708.6
-29782.2
-28850.3
-27919
-26992.9
-26074.9
-25170.5
-24308.9
-23447.1
-22613.9
-21804.6
-21020.9
-20263.9
-19533.3
-18829
-18150
-17495
-16864.5
-16257.7
-15673.6
-15111
-14569.1
-14046.8
-13543.3
-13057.6
-12588.4
-12133.2
-11695.2
-11279
-10871.8
-10482
-10106.1
-9733.94
-9375.28
-9028.8
-8693.3
-8368.12
-8052.8
-7746.9
-7450
-7161.67
-6881.53
-6609.18
-6344.22
-6086.26
-5834.92
-5589.82
-5350.57
-5116.79
-4888.11
-4664.16
-4444.59
-4229.04
-4017.18
-3808.67
-3603.22
-3400.52
-3200.31
-3002.31
-2806.31
-2612.06
-2419.39
-2228.09
-2038
-1848.97
-1660.86
-1473.54
-1286.86
-1100.7
-914.937
-729.411
-543.97
-358.436
-172.665
13.8121
201.349
389.613
576.422
769.026
981.86
1201.51
1405.98
1602.73
1816.82
2047.24
2289.91
2547.79
2823.61
3126.54
3448.78
3860.29
-9207.52
-36314.9
-36681
-36487.2
-36029
-35539.9
-35040.1
-34503.4
-33919.1
-33289.4
-32616.4
-31903.4
-31155.4
-30378.2
-29578
-28760.8
-27932.4
-27098.3
-26263.2
-25435.4
-24579
-23789.5
-22992.3
-22212.5
-21448.9
-20704
-19979
-19276.3
-18594
-17932
-17290.8
-16670.3
-16069.9
-15489.4
-14927.6
-14384.4
-13859.3
-13351.4
-12859.9
-12383.1
-11921.3
-11478.8
-11050.6
-10637.1
-10235.7
-9845.23
-9466.01
-9099.04
-8743.75
-8399.55
-8066
-7742.69
-7429.23
-7125.25
-6830.36
-6544.19
-6266.36
-5996.49
-5734.22
-5479.17
-5230.94
-4989.17
-4753.47
-4523.47
-4298.78
-4079.04
-3863.89
-3652.97
-3445.94
-3242.48
-3042.26
-2844.99
-2650.39
-2458.2
-2268.16
-2080.05
-1893.66
-1708.78
-1525.24
-1342.87
-1161.49
-980.942
-801.075
-621.719
-442.705
-263.852
-84.9792
94.0767
274.078
454.937
635.931
814.66
1007.19
1222.34
1429.59
1616.18
1809.15
2022.43
2247.02
2483.39
2735.06
3004.21
3299.53
3613.15
4012.54
-7078.72
-34276.3
-34661.8
-34485.9
-34058.5
-33623.7
-33191.1
-32729.3
-32227.4
-31686.2
-31106.2
-30489.5
-29839.3
-29160.1
-28456.4
-27733.2
-26995.1
-26246.9
-25494.1
-24736.9
-23959.1
-23214.3
-22484.6
-21752.5
-21033.3
-20327.7
-19636.8
-18961.7
-18303.3
-17661.5
-17036.2
-16428
-15837.1
-15262.9
-14704.6
-14162.9
-13638.2
-13128.9
-12634.3
-12152.8
-11688.1
-11239.3
-10800.5
-10382.9
-9975.1
-9574.71
-9187.39
-8812.64
-8449.62
-8097.85
-7756.97
-7426.64
-7106.52
-6796.26
-6495.53
-6203.97
-5921.26
-5647.02
-5380.9
-5122.53
-4871.55
-4627.57
-4390.23
-4159.13
-3933.89
-3714.15
-3499.53
-3289.66
-3084.19
-2882.78
-2685.08
-2490.78
-2299.58
-2111.19
-1925.33
-1741.76
-1560.24
-1380.53
-1202.43
-1025.74
-850.26
-675.801
-502.177
-329.196
-156.663
15.6087
187.807
360.269
533.704
707.488
880.613
1053.37
1249.39
1462.19
1649.98
1823.54
2017.33
2226.22
2444.11
2673.95
2918.9
3180.75
3467.72
3771.99
4158.45
-5137.09
-32445.9
-32843.9
-32676.6
-32268.6
-31875.5
-31495.5
-31092.3
-30655.2
-30184.4
-29679.5
-29141.2
-28571.8
-27974.4
-27352.3
-26709.1
-26048.5
-25374.2
-24689.5
-23989.8
-23287.2
-22618.3
-21925
-21242.2
-20566.4
-19899.3
-19242.2
-18596.3
-17963.4
-17343.3
-16736
-16142.4
-15563
-14997.6
-14446.3
-13909.1
-13386.1
-12876.9
-12380.9
-11896.7
-11428.7
-10978
-10534.2
-10109.1
-9698.11
-9290.57
-8896.49
-8515.17
-8145.66
-7787.48
-7440.35
-7103.98
-6778.08
-6462.36
-6156.52
-5860.26
-5573.26
-5295.18
-5025.7
-4764.46
-4511.11
-4265.27
-4026.57
-3794.64
-3569.08
-3349.53
-3135.6
-2926.92
-2723.11
-2523.83
-2328.71
-2137.43
-1949.65
-1765.08
-1583.41
-1404.37
-1227.7
-1053.13
-880.447
-709.405
-539.789
-371.382
-203.971
-37.3367
128.73
294.403
459.938
625.956
792.595
958.538
1122.98
1295.57
1496.18
1695.92
1862.4
2032.51
2225.59
2427.68
2638.71
2861.71
3099.4
3353.35
3631.35
3925.64
4298.36
-3351.07
-30789.6
-31195.5
-31029.3
-30632.1
-30271.3
-29932.7
-29575.3
-29189.6
-28775.1
-28330.7
-27856.5
-27353.9
-26824.9
-26271.9
-25697.6
-25105
-24497.1
-23876.3
-23250.5
-22578.8
-21970.5
-21322.1
-20688.9
-20055.6
-19426.4
-18803
-18186.7
-17579.9
-16982.4
-16394.2
-15816.8
-15250.5
-14695.5
-14153.1
-13622.7
-13103.5
-12595.9
-12098
-11615.9
-11152.9
-10696.4
-10252.5
-9821.27
-9400.22
-8990.21
-8592.19
-8205.97
-7831.27
-7467.85
-7115.53
-6774.09
-6443.3
-6122.94
-5812.74
-5512.45
-5221.78
-4940.44
-4668.1
-4404.45
-4149.13
-3901.79
-3662.06
-3429.58
-3203.95
-2984.81
-2771.75
-2564.41
-2362.4
-2165.35
-1972.9
-1784.7
-1600.4
-1419.68
-1242.22
-1067.72
-895.893
-726.468
-559.179
-393.772
-230.001
-67.6264
93.5912
253.892
413.485
572.519
731.531
891.034
1050.54
1207.98
1365.45
1542.2
1743.13
1921.22
2071.81
2243.8
2432.17
2626.92
2830.98
3046.75
3276.69
3522.21
3790.66
4074.4
4432.69
-1695.58
-29280
-29691.2
-29519.5
-29126.9
-28791.1
-28485.3
-28163.9
-27818.9
-27449.3
-27053.7
-26631.8
-26184.3
-25712.5
-25217.9
-24702.6
-24169
-23619.6
-23058.7
-22488.1
-21839.5
-21263.7
-20701.1
-20105.4
-19510.4
-18916.9
-18326
-17738.9
-17157.3
-16582.6
-16015
-15454.6
-14903
-14360.3
-13827.3
-13304.6
-12792
-12289.7
-11796.4
-11314.5
-10846.1
-10389.4
-9949.63
-9516.28
-9090.08
-8676.5
-8274.95
-7884.86
-7506.08
-7138.5
-6782
-6436.43
-6101.64
-5777.44
-5463.64
-5160.01
-4866.3
-4582.26
-4307.6
-4042
-3785.14
-3536.69
-3296.28
-3063.55
-2838.12
-2619.62
-2407.64
-2201.82
-2001.76
-1807.07
-1617.4
-1432.36
-1251.61
-1074.8
-901.585
-731.655
-564.699
-400.42
-238.531
-78.7555
79.1747
235.525
390.555
544.522
697.611
849.992
1002.64
1155.52
1307.35
1455.3
1610.6
1794.31
1985.03
2137.55
2283.19
2455.77
2636.77
2824.18
3021.01
3229.15
3450.9
3687.5
3945.89
4218.58
4561.87
-150.477
-27895
-28310.1
-28127.4
-27735
-27418.4
-27138.4
-26845.4
-26532.4
-26198.6
-25842.4
-25463.1
-25061
-24636.5
-24190.6
-23724.5
-23239.7
-22738.4
-22222.7
-21679.9
-21127.2
-20605.4
-20051
-19495.3
-18936.5
-18376.4
-17816.5
-17257.9
-16700.9
-16148.2
-15601.2
-15058.9
-14522.5
-13993.1
-13471.1
-12956.6
-12451
-11953.6
-11466
-10990.5
-10525.7
-10067.9
-9623.68
-9191.32
-8763.78
-8348.19
-7944.23
-7551.43
-7169.7
-6799
-6439.31
-6090.54
-5752.61
-5425.38
-5108.72
-4802.44
-4506.33
-4220.18
-3943.72
-3676.66
-3418.72
-3169.55
-2928.82
-2696.17
-2471.23
-2253.62
-2042.96
-1838.85
-1640.91
-1448.75
-1261.98
-1080.22
-903.097
-730.26
-561.354
-396.037
-233.983
-74.8738
81.5979
235.73
387.813
538.134
686.971
834.583
981.121
1127.02
1273.25
1419.33
1563.09
1701.82
1858.9
2049.1
2218.75
2349.49
2497.75
2666.4
2839.49
3019.56
3208.86
3409.01
3622.17
3849.42
4097.28
4358.44
4686.41
1300.39
-26616.7
-27034.7
-26836.7
-26441.3
-26139.4
-25879.7
-25608.6
-25320.9
-25015.5
-24690.9
-24346.3
-23981.5
-23596.5
-23191.6
-22767.6
-22325.7
-21867.3
-21393.1
-20908.9
-20374.3
-19902.7
-19375.2
-18860.2
-18336.4
-17808.4
-17278.1
-16746.6
-16214.8
-15684.7
-15157.3
-14632.9
-14112.1
-13596.6
-13086.9
-12583.4
-12086.1
-11593.1
-11110.8
-10644.7
-10180.6
-9724.66
-9281.67
-8847.01
-8420.59
-8004.85
-7599.81
-7205.45
-6821.83
-6449.03
-6087.1
-5736.03
-5395.79
-5066.33
-4747.54
-4439.29
-4141.42
-3853.75
-3576.03
-3308.02
-3049.44
-2799.97
-2559.3
-2327.07
-2102.93
-1886.5
-1677.39
-1475.22
-1279.6
-1090.12
-906.394
-728.035
-554.659
-385.89
-221.362
-60.7203
96.3828
250.283
401.307
549.772
695.988
840.264
982.885
1124.09
1264.06
1403.72
1543.36
1682.12
1817.21
1949.6
2113.42
2299.65
2442.22
2563.46
2713.81
2875.28
3040.58
3213.16
3394.63
3586.46
3790.65
4008.16
4245.09
4494.31
4806.47
2669.86
-25429.9
-25850.6
-25633.6
-25233.2
-24942.3
-24698.3
-24444.2
-24176.1
-23893.1
-23593.8
-23277.1
-22942.8
-22590.6
-22220.2
-21832.2
-21427.7
-21008
-20576.1
-20134.2
-19590.2
-19140.9
-18697.5
-18210.3
-17717.1
-17218.7
-16716
-16210.1
-15702.2
-15193.9
-14686.2
-14179.7
-13675
-13173.4
-12676.5
-12184.5
-11696.4
-11212.1
-10738.5
-10275.3
-9815.59
-9363.09
-8919.29
-8486.16
-8061.8
-7646.84
-7241.73
-6846.8
-6462.27
-6088.31
-5725.05
-5372.54
-5030.82
-4699.89
-4379.69
-4070.16
-3771.17
-3482.56
-3204.14
-2935.68
-2676.92
-2427.59
-2187.37
-1955.92
-1732.9
-1517.94
-1310.65
-1110.66
-917.557
-730.949
-550.436
-375.62
-206.108
-41.513
118.545
274.437
426.526
575.164
720.697
863.458
1003.78
1141.98
1278.34
1413.06
1546.62
1680.06
1812.8
1943.83
2068.96
2201.18
2373.04
2541.85
2659.48
2780.92
2929.49
3082.52
3240.18
3405.04
3578.41
3761.61
3956.51
4163.92
4389.54
4626.49
4922.37
3968.1
-24322.6
-24745.7
-24506.9
-24100
-23817.1
-23585.2
-23343.8
-23090.7
-22825.1
-22545.6
-22251.3
-21941.7
-21616.1
-21273.8
-20915.1
-20540.4
-20151
-19748.5
-19316.6
-18876.6
-18453.9
-18004.2
-17547.1
-17082.1
-16610.4
-16133.2
-15651.6
-15166.6
-14678.9
-14190.3
-13701.4
-13213.2
-12726.2
-12241.6
-11759.8
-11280.4
-10809.5
-10345.3
-9881.26
-9425.75
-8983.7
-8545.68
-8112.21
-7688.53
-7274.49
-6870.04
-6475.41
-6090.88
-5716.65
-5352.91
-4999.79
-4657.38
-4325.73
-4004.84
-3694.7
-3395.21
-3106.25
-2827.67
-2559.28
-2300.83
-2052.06
-1812.69
-1582.4
-1360.84
-1147.65
-942.466
-744.895
-554.543
-371.008
-193.885
-22.7709
142.737
303.037
458.521
609.573
756.57
899.882
1039.87
1176.88
1311.26
1443.34
1573.36
1701.54
1828.96
1956
2081.53
2204.58
2320.4
2457.13
2633.3
2775.12
2875.29
3001.14
3143.63
3288.38
3438.37
3595.31
3760.3
3934.59
4119.9
4316.92
4530.91
4755.28
5034.49
5203.34
-23284.8
-23709.7
-23447
-23032.4
-22755.5
-22532.3
-22300.3
-22058.2
-21805.8
-21541.6
-21265
-20975.2
-20671.3
-20352.4
-20018.4
-19669.7
-19307.1
-18929.9
-18542.9
-18101.7
-17730.6
-17294
-16869
-16431.3
-15985.1
-15532.1
-15073.3
-14609.8
-14142.2
-13671.9
-13199.9
-12727.9
-12256.1
-11784
-11313.2
-10844.6
-10382.8
-9926.05
-9470.86
-9021.26
-8583
-8151.74
-7720.94
-7299.48
-6887.42
-6484.59
-6091.18
-5707.51
-5333.86
-4970.47
-4617.53
-4275.19
-3943.55
-3622.67
-3312.57
-3013.2
-2724.49
-2446.3
-2178.48
-1920.81
-1673.06
-1434.96
-1206.19
-986.443
-775.355
-572.563
-377.684
-190.322
-10.0759
163.462
330.702
492.054
647.924
798.715
944.824
1086.64
1224.55
1358.92
1490.12
1618.5
1744.41
1867.97
1989.77
2111.11
2231.34
2349.3
2463.71
2573.52
2719.69
2888.18
2999.13
3094.72
3222.31
3356.31
3493.04
3635.24
3784.02
3940.42
4105.56
4281.01
4467.34
4669.41
4880.92
5143.32
6381.98
-22308
-22733.6
-22446.1
-22022.8
-21750.2
-21532.9
-21307.2
-21073
-20830.1
-20577.5
-20314.5
-20040.4
-19754
-19454.3
-19141.3
-18815.6
-18477.8
-18130.3
-17774.8
-17306.1
-16948
-16590.2
-16184.4
-15769.5
-15346.5
-14915.6
-14478.1
-14034.8
-13586.1
-13133.2
-12678.3
-12221.3
-11763.1
-11303.8
-10843.3
-10386.6
-9937.04
-9490.33
-9043.55
-8601.79
-8165.86
-7735.83
-7311.4
-6894.46
-6485.66
-6085.39
-5694.07
-5312.1
-4939.84
-4577.58
-4225.58
-3884.03
-3553.11
-3232.91
-2923.49
-2624.85
-2336.96
-2059.72
-1792.98
-1536.58
-1290.3
-1053.88
-827.032
-609.45
-400.791
-200.696
-8.78543
175.332
352.059
521.805
684.985
842.013
993.305
1139.27
1280.32
1416.86
1549.27
1677.95
1803.27
1925.59
2045.22
2162.23
2278.01
2393
2505.87
2615.93
2720.34
2832.12
2987.57
3132.8
3218.97
3318.39
3442.34
3567.71
3696.59
3830.84
3971.29
4118.88
4274.65
4440.01
4615.4
4805.31
5003.71
5249.02
7508.61
-21385
-21810.2
-21496.9
-21064.3
-20794.7
-20580.9
-20358.9
-20129.7
-19893.4
-19648.9
-19396
-19133.7
-18860.9
-18576.2
-18279.5
-17971
-17651.5
-17322.3
-16964.8
-16600.6
-16250.8
-15876.4
-15492.6
-15098.9
-14696.3
-14285.5
-13867.6
-13443.4
-13012.9
-12577.3
-12138.1
-11695.9
-11251.2
-10805.5
-10358.1
-9913.71
-9472.3
-9029.82
-8593.6
-8163.04
-7732.04
-7306.35
-6887
-6474.61
-6069.63
-5672.64
-5284.15
-4904.64
-4534.5
-4174.11
-3823.76
-3483.72
-3154.19
-2835.32
-2527.21
-2229.9
-1943.4
-1667.63
-1402.5
-1147.85
-903.484
-669.171
-444.643
-229.598
-23.7103
173.374
362.025
542.634
715.6
881.334
1040.25
1192.78
1339.33
1480.34
1616.2
1747.34
1874.16
1997.06
2116.42
2232.59
2345.81
2456.43
2566.16
2674.49
2779.86
2881.43
2977.89
3096.69
3253.34
3367.55
3440.11
3544.36
3660.99
3778.08
3899.14
4025.28
4157.21
4295.81
4442.01
4597.07
4761.32
4938.85
5123.96
5351.88
8586.44
-20509.8
-20933.7
-20593.5
-20151
-19883.3
-19670.8
-19450.4
-19223.8
-18991.3
-18752.2
-18506.3
-18252.7
-17990.1
-17717.4
-17434
-17140.4
-16836.9
-16522
-16199.8
-15818.3
-15521.1
-15149.4
-14790.7
-14417.6
-14034.6
-13642.9
-13243.4
-12837.1
-12423.6
-12004.1
-11580.5
-11152.8
-10721.5
-10286.6
-9853.94
-9423.35
-8987.63
-8555.26
-8124.44
-7702.26
-7283.79
-6862.41
-6447.74
-6040.09
-5639.51
-5246.46
-4861.49
-4485.13
-4117.82
-3759.98
-3411.97
-3074.09
-2746.6
-2429.68
-2123.49
-1828.11
-1543.55
-1269.8
-1006.78
-754.356
-512.364
-280.588
-58.7774
153.354
356.123
549.871
734.965
911.788
1080.74
1242.23
1396.68
1544.52
1686.16
1822.04
1952.58
2078.21
2199.32
2316.34
2429.66
2539.54
2646.27
2750.81
2854.3
2955.39
3053.04
3144.99
3237.91
3368.29
3512.65
3593.91
3665.87
3770.72
3878.47
3987.6
4100.75
4218.63
4341.9
4471.35
4607.81
4752.38
4905.31
5070.27
5241.92
5452.29
9617.67
-19677.3
-20099.1
-19730.6
-19278
-19011.1
-18797.8
-18577.1
-18351
-18120.1
-17883.7
-17642.1
-17394.5
-17139.4
-16876
-16603.9
-16323.6
-16035.5
-15741.6
-15442.6
-15026
-14728.3
-14432.8
-14085.9
-13729.5
-13364
-12989.4
-12606.7
-12216.6
-11819.4
-11415.4
-11006.8
-10593.6
-10176.3
-9754.51
-9329.73
-8908.69
-8489.83
-8067.65
-7644.4
-7225.48
-6812.6
-6400.33
-5992.71
-5590.87
-5195.41
-4806.97
-4426.17
-4053.6
-3689.77
-3335.14
-2990.1
-2655.02
-2330.18
-2015.84
-1712.15
-1419.25
-1137.19
-865.985
-605.575
-355.863
-116.699
112.11
330.798
539.636
738.929
929.01
1110.24
1282.99
1447.67
1604.67
1754.44
1897.38
2033.93
2164.53
2289.6
2409.57
2524.87
2635.9
2743.04
2846.46
2946.85
3045.48
3142.29
3235.75
3325.42
3407.63
3503.02
3644.24
3761.56
3817.35
3895.88
3995.98
4095.08
4196.37
4301.5
4411
4525.47
4645.64
4772.21
4906.13
5047.57
5199.81
5357.86
5550.64
10603.2
-18883.3
-19302
-18903.8
-18440.6
-18173.5
-17957.6
-17734.8
-17507.4
-17275.8
-17039.9
-16800.2
-16555.8
-16305.6
-16048.4
-15784
-15512.6
-15234.6
-14950.7
-14640.7
-14322.8
-14029.3
-13706.8
-13376.3
-13035.4
-12685.1
-12326.1
-11958.9
-11584.4
-11202.6
-10813.5
-10417.9
-10017.2
-9611.19
-9203.69
-8797.39
-8385.42
-7970.69
-7556.75
-7147.06
-6738.07
-6329.44
-5924.15
-5523.3
-5127.57
-4737.68
-4354.37
-3978.32
-3610.13
-3250.38
-2899.54
-2558.09
-2226.4
-1904.82
-1593.62
-1293.01
-1003.15
-724.125
-455.976
-198.676
47.8518
283.734
509.144
724.301
929.461
1124.92
1310.99
1488.04
1656.43
1816.55
1968.83
2113.67
2251.51
2382.78
2507.92
2627.37
2741.55
2850.89
2955.83
3056.65
3153.43
3247.85
3340.35
3429.88
3515.8
3596.84
3672.19
3775.94
3915.37
3998.84
4045.12
4128.38
4220.25
4311.04
4404.49
4501.49
4602.5
4708.06
4818.81
4935.35
5058.5
5188.32
5327.72
5472.06
5647.1
11542.5
-18124.4
-18538.8
-18109
-17634.9
-17366.5
-17146.1
-16919.6
-16689.3
-16455.3
-16217.8
-15977.7
-15734.4
-15486.8
-15233.8
-14975.4
-14711.7
-14442.4
-14165.5
-13885.4
-13537.5
-13295.2
-12969.6
-12658.3
-12332.7
-11997.3