/*--------------------------------*- C++ -*----------------------------------*\
  =========                 |
  \\      /  F ield         | OpenFOAM: The Open Source CFD Toolbox
   \\    /   O peration     | Website:  https://openfoam.org
    \\  /    A nd           | Version:  6
     \\/     M anipulation  |
\*---------------------------------------------------------------------------*/
FoamFile
{
    version     2.0;
    format      ascii;
    class       volScalarField;
    location    "0";
    object      p;
}
// * * * * * * * * * * * * * * * * * * * * * * * * * * * * * * * * * * * * * //

dimensions      [1 -1 -2 0 0 0 0];

internalField   nonuniform List<scalar> 
18060
(
-1.0217e+06
-885516
-811448
-621703
-551343
-384875
-327461
-210364
-170730
-105684
-84363.1
-55492.8
-42455.9
-29698.2
-22432.3
-16836
-12909.7
-9912.27
-7587.65
-5743.81
-4252.51
-3030.81
-2017.92
-1171.26
-457.903
146.483
660.886
1100.68
1477.79
1801.85
2080.76
2321.08
2528.32
2707.13
2861.49
2994.84
3110.14
3209.95
3296.5
3371.72
3437.29
3494.65
3545.01
3589.43
3628.76
3663.73
3694.94
3722.88
3747.97
3770.48
3790.38
3807.92
3823.3
3836.65
3847.98
3857.29
3864.57
3869.76
3872.84
3873.79
3872.59
3869.21
3863.62
3855.8
3845.74
3833.42
3818.85
3802.03
3782.98
3761.73
3738.32
3712.79
3685.19
3655.59
3624.06
3590.68
3555.54
3518.72
3480.35
3440.53
3399.39
3357.09
3313.82
3269.45
3224.21
3178.26
3131.74
3084.79
3037.54
2990.12
2942.65
2895.27
2848.13
2801.34
2755.04
2709.37
2664.52
2620.56
2577.66
2535.98
2495.72
2457.15
2420.11
2385.24
2354.6
-97747.4
7490.25
-16368.3
-47.7659
1482.76
3495.92
7781.47
9855.33
9715.06
10095.5
10376.7
10775.7
10502.2
10287.5
10035.8
9897.99
9756.94
9661.69
9578.84
9513.97
9459.94
9415.77
9380.03
9351.92
9330.4
9314.89
9305.32
9301.01
9301.27
9305.74
9313.96
9325.46
9339.77
9356.46
9375.13
9395.4
9416.91
9439.32
9462.34
9485.71
9509.17
9532.47
9555.42
9577.79
9599.33
9619.87
9639.31
9657.5
9674.34
9689.57
9702.59
9713.75
9722.46
9729.41
9734.06
9736.25
9735.8
9732.59
9726.49
9717.41
9705.22
9689.87
9671.25
9649.32
9624.01
9595.27
9563.08
9527.43
9488.3
9445.73
9399.74
9350.38
9297.72
9241.85
9182.86
9120.87
9056
8988.36
8918.15
8845.51
8770.66
8693.9
8616.31
8536.12
8454.46
8371.55
8287.67
8203.05
8117.92
8032.48
7946.97
7861.61
7776.64
7692.31
7608.79
7526.33
7445.29
7365.71
7287.91
7212.1
7138.53
7067.51
6998.39
6932.37
6866.56
32806.9
29176
23052.2
21030.1
20321.3
19829.8
19334.9
18866.7
18345.7
17916
17557.7
17214.9
16889.6
16607.4
16378.7
16186.9
16026.6
15889.9
15773.2
15672.7
15585.1
15508.5
15441
15381.3
15329.4
15284.8
15246.1
15212.9
15184.5
15160.4
15140.3
15123.6
15109.9
15098.7
15089.5
15082
15075.8
15070.5
15066
15061.7
15057.6
15053.4
15048.8
15043.9
15038
15031.1
15023.1
15014
15003.4
14991.3
14977.2
14961.6
14943.6
14924
14902.3
14878.2
14851.8
14822.8
14791.3
14757
14720
14680.1
14637.4
14591.7
14543
14491.3
14436.6
14378.8
14318
14254.2
14187.5
14117.8
14045.3
13970
13892.1
13811.7
13728.9
13643.8
13556.6
13467.4
13376.5
13284
13191.1
13096.3
13000.6
12904.2
12807.3
12710.1
12612.9
12515.9
12419.4
12323.5
12228.4
12134.5
12041.8
11950.6
11861.3
11773.7
11688.3
11605
11524.1
11445.4
11368
11292.4
11204.9
32043.7
26642
27231
27435.2
27224.4
26281
25560.7
25004.3
24543.9
24116.6
23752.5
23427.2
23142.7
22876
22636.7
22422.9
22235.6
22070.4
21924.3
21794.3
21677.8
21573.1
21479.4
21395.4
21319.8
21251
21188.4
21131.4
21079.1
21031.3
20987.2
20946.4
20908.4
20872.7
20839
20806.7
20775.5
20745
20715
20685.2
20655.2
20624.9
20594
20562.6
20530.1
20496.2
20461.4
20425.2
20387.5
20347.7
20306.3
20263.4
20218.9
20171.9
20122.7
20071.2
20017.4
19961.2
19902.5
19841.4
19777.6
19711.3
19642.4
19570.8
19496.6
19419.7
19340.3
19258.2
19173.5
19086.3
18996.7
18904.6
18810.3
18713.7
18615.1
18514.6
18412.3
18308.3
18202.8
18096
17988
17879
17768.3
17658.1
17547.9
17437.7
17327.7
17218.1
17109.2
17001.1
16894.1
16788.4
16684.2
16581.8
16481.2
16382.6
16286.3
16192.4
16100.9
16012
15925.4
15841
15757.2
15674.5
15574.8
35328.3
34625.6
34269.9
34185.7
33245.3
32463.6
31793.1
31220.8
30730.6
30297.8
29914.9
29574.8
29272.9
29000.8
28754.9
28533
28332.5
28152.1
27989.5
27842
27708.6
27587.4
27476.2
27374
27279.7
27192.2
27110.7
27034.3
26962.5
26894.7
26830.4
26769
26710
26653
26597.6
26543.4
26490
26437
26384.3
26331.4
26278.1
26224.2
26169.5
26113.6
26056.7
25998.1
25938.9
25877.8
25814.8
25749.8
25683.2
25614.8
25544.8
25472.1
25397.1
25319.7
25240
25157.9
25073.3
24986.3
24896.8
24804.9
24710.4
24613.5
24514.2
24412.4
24308.2
24201.7
24092.9
23981.9
23868.8
23753.7
23636.6
23517.8
23397.3
23275.4
23152.1
23027.6
22902.2
22775.9
22649
22521.4
22392.7
22265.1
22138.1
22011.8
21886.4
21762
21638.9
21517.3
21397.4
21279.4
21163.6
21050.1
20939.1
20830.7
20725.1
20622.5
20522.7
20425.8
20331.6
20239.6
20147.9
20056.8
19946.4
38747.2
40197.9
39929.4
39382.2
38718.6
38135.8
37604.8
37124.4
36690.4
36297.9
35941.7
35618.2
35323.7
35055.7
34811
34587.3
34382.5
34194.7
34022.6
33864.1
33717.4
33581.6
33455.2
33337.1
33226.3
33121.9
33022.9
32928.7
32838.6
32752
32668.5
32587.5
32508.5
32431
32354.8
32279.4
32204.5
32129.8
32054.9
31979.6
31903.6
31826.8
31748.9
31669.5
31589
31506.7
31423.1
31337.6
31249.8
31160.2
31068.9
30975.6
30880
30782.1
30681.9
30579.2
30474.1
30366.6
30256.7
30144.4
30029.7
29912.5
29793
29671.1
29547
29420.6
29292
29161.3
29028.6
28894
28757.5
28619.3
28479.6
28338.4
28196
28052.5
27908.1
27763
27617.3
27471.2
27325
27178.7
27032.5
26887.3
26743.1
26600.2
26458.8
26319
26181.1
26045.2
25911.7
25780.7
25652.5
25527.2
25405
25286.1
25170.5
25058.3
24949.5
24844.1
24741.5
24641.6
24541.9
24442.6
24322.5
43829.9
44972.7
44683.5
44363.4
44018.2
43640.6
43257.4
42884.1
42527.7
42191.7
41877.1
41583.6
41310.2
41055.7
40819
40598.7
40393.7
40202.9
40025.1
39859.1
39703.3
39556.3
39417.5
39285.9
39160.6
39041
38926.1
38815.2
38707.9
38603.5
38501.6
38401.7
38303.3
38206
38109.5
38013.3
37917.3
37821
37724.2
37626.7
37528.2
37428.5
37327.4
37224.8
37120.5
37014.7
36906.6
36796.7
36684.4
36570.1
36453.9
36335.4
36214.7
36091.5
35965.9
35837.8
35707.3
35574.4
35439.1
35301.4
35161.3
35019
34874.4
34727.5
34578.6
34427.5
34274.5
34119.7
33963
33804.7
33644.9
33483.7
33321.3
33157.8
32993.4
32828.4
32662.9
32497.1
32331.2
32165.4
32000
31835
31670.9
31508
31346.8
31187.3
31029.9
30874.7
30721.9
30571.9
30424.8
30280.9
30140.3
30003.3
29869.9
29740.4
29614.9
29493.3
29375.6
29261.6
29151
29043.2
28936.1
28829.8
28701.8
48808.7
49998.6
49872.8
49691.1
49454.5
49186.6
48898.2
48604
48312.7
48029
47755.9
47494.5
47245.8
47009.6
46785.7
46573.7
46372.8
46182.5
46001.9
45830.7
45668.3
45513.2
45364.4
45221.4
45083.6
44950.4
44820.9
44694.7
44571.3
44450.1
44330.7
44212.7
44095.6
43979
43862.7
43746.3
43629.5
43512
43393.7
43274.2
43153.3
43030.9
42906.8
42781.1
42652.7
42523.3
42391.2
42256.5
42119.8
41980.9
41839.7
41696.1
41549.9
41401.4
41250.3
41096.7
40940.7
40782.2
40621.3
40458.1
40292.6
40124.9
39955
39783.1
39609.1
39433.3
39255.8
39076.6
38895.9
38713.8
38530.5
38346.2
38161
37975.1
37788.7
37602.1
37415.4
37228.8
37042.7
36857.1
36672.4
36488.8
36306.6
36126.1
35947.8
35771.8
35598.4
35427.8
35260.3
35096.2
34935.5
34778.7
34625.8
34477.1
34332.7
34192.8
34057.4
33926.5
33800
33677.9
33559.5
33444.4
33330.1
33217.4
33084.2
54043.6
55279.4
55218.5
55115.4
54954.1
54760.4
54542.1
54310.6
54073.8
53836.3
53601.5
53371.4
53147.4
52930.5
52721
52519.2
52324.9
52137.8
51957.5
51783.5
51616
51454.5
51297.9
51145.4
50996.6
50851.1
50708.4
50568.1
50429.5
50292.5
50156.4
50020.9
49885.8
49750.6
49615.1
49478.8
49341.7
49203.5
49063.8
48922.5
48779.6
48634.7
48487.8
48338.5
48187.1
48033.6
47877.5
47718.4
47556.9
47393.4
47227.2
47058.3
46886.9
46712.8
46536.2
46357
46175.3
45991.2
45804.7
45615.8
45424.8
45231.5
45036.3
44839.1
44640.1
44439.4
44237.1
44033.5
43828.6
43622.6
43415.7
43208.1
43000
42791.6
42583.1
42374.8
42166.8
41959.4
41752.9
41547.5
41343.5
41141.2
40940.7
40742.6
40547.1
40354.6
40165.2
39979.2
39796.9
39618.6
39444.4
39274.6
39109.5
38949.1
38793.8
38643.4
38498.2
38358.2
38223.1
38092.8
37966.9
37844.8
37723.8
37605.5
37467.6
59460.8
60720.5
60691.3
60633.3
60522.6
60380.1
60211.9
60027.5
59833.4
59634
59432
59229.7
59028.8
58830.4
58635.4
58444.2
58257.2
58074.4
57895.8
57721.1
57550.4
57383.4
57220.1
57059.6
56901.3
56744.7
56589.8
56436.2
56283.5
56131.3
55979.3
55827.2
55674.6
55521.2
55366.9
55211.3
55054.2
54895.4
54734.8
54572
54407.1
54239.9
54070.4
53897.6
53723.2
53545.6
53365.2
53182.1
52996.2
52807.7
52616.4
52422.3
52225.4
52025.8
51823.6
51618.7
51411.3
51201.4
50989.1
50774.5
50557.7
50338.9
50118.2
49895.6
49671.4
49445.7
49218.6
48990.4
48761.2
48531.2
48300.6
48069.7
47838.6
47607.5
47376.8
47146.6
46917.3
46689
46462.1
46236.7
46013.3
45792.1
45573.4
45357.6
45144.9
44935.7
44730.3
44528.9
44331.8
44139.2
43951.5
43768.8
43591.4
43419.4
43253.1
43092.3
42937.4
42788.2
42644.6
42506.5
42373.3
42244.4
42117.3
41993.9
41851.2
64999.6
66275.6
66263.6
66233.3
66155.6
66047.9
65915.2
65765.4
65604.2
65434.9
65259.9
65081.2
64900.4
64718.6
64537
64356.2
64176.5
63998.3
63821.8
63647.4
63474.4
63303.5
63133.9
62966.1
62799.2
62632.7
62466.4
62300.3
62134.2
61967.6
61800.3
61632
61462.4
61291.4
61118.7
60944
60767.2
60588.2
60406.8
60222.8
60036
59846.5
59654
59458.8
59260.8
59059.5
58854.8
58647.2
58436.9
58223.5
58007.1
57787.7
57565.3
57340.1
57112.1
56881.5
56648.2
56412.4
56174.2
55933.8
55691.2
55446.6
55200.3
54952.2
54702.7
54451.9
54199.9
53947
53693.4
53439.2
53184.8
52930.4
52676.1
52422.4
52169.3
51917.2
51666.4
51417.2
51169.7
50924.4
50681.6
50441.4
50204.4
49970.7
49740.8
49515
49293.5
49076.6
48864.7
48657.9
48456.7
48261.1
48071.4
47887.8
47710.5
47539.4
47374.8
47216.5
47064.5
46918.6
46778.4
46643.2
46510.6
46382.1
46235.2
70625.6
71916.1
71914
71901.6
71845.9
71761.9
71654.2
71529.6
71393.1
71247.1
71093.7
70934.2
70770.3
70602.9
70433
70261.4
70088.2
69914.4
69740.4
69566.2
69391.1
69217
69042.4
68867.4
68692.4
68516.8
68339.9
68161.9
67982.8
67802.3
67620.1
67436.1
67250
67061.6
66870.8
66677.4
66481.2
66282.2
66080.1
65874.9
65666.6
65455
65239.6
65021.9
64800.1
64574.9
64346.1
64114.2
63879.2
63640.9
63399.2
63154.4
62906.5
62655.5
62401.7
62145.1
61885.8
61624
61359.8
61093.4
60824.9
60554.5
60282.3
60008.7
59733.7
59457.6
59180.5
58902.8
58624.7
58346.3
58067.9
57789.9
57512.4
57235.8
56960.3
56686.3
56413.9
56143.6
55875.6
55610.2
55347.8
55088.7
54833.3
54581.8
54334.6
54092
53854.4
53622.1
53395.3
53174.4
52959.6
52751.1
52549.2
52354
52165.8
51984.4
51810
51642.8
51482.6
51329.2
51182.2
51040.8
50902.9
50770
50619.7
76318.9
77623.5
77627.4
77626.8
77586
77518.3
77428.3
77322
77203.9
77075.7
76939
76794.9
76644.6
76489
76328.5
76164.3
75997.2
75827.4
75655.3
75480.9
75304.9
75127.2
74947.6
74766.2
74583.1
74398.4
74211.5
74022.2
73830.5
73636.4
73439.8
73240.4
73038
72832.6
72623.9
72412
72196.6
71977.6
71755.1
71528.8
71298.8
71065.1
70827.5
70586.4
70341.2
70092.1
69839.3
69583
69323.1
69059.6
68792.7
68522.3
68248.7
67971.9
67692.1
67409.4
67124
66836
66545.6
66253.1
65958.5
65662
65364
65064.6
64764
64462.5
64160.3
63857.6
63554.8
63252
62949.6
62647.9
62347.1
62047.5
61749.5
61453.4
61159.4
60867.9
60579.3
60293.8
60011.8
59733.7
59459.8
59190.4
58925.9
58666.6
58412.9
58165.1
57923.5
57688.4
57460
57238.6
57024.5
56817.8
56618.7
56427
56243.1
56067
55898.7
55738.2
55584.4
55437.3
55294.1
55157.4
55004.2
82066.5
83385.4
83393
83400.7
83370
83313.6
83236
83142.9
83038.3
82923.5
82799.7
82667.4
82527.4
82380.8
82228.3
82070.4
81907.9
81741
81570.1
81395.5
81217.2
81036.3
80851.7
80664.2
80473.4
80279.7
80082.9
79882.5
79678.5
79471.2
79260.3
79045.6
78827.2
78604.9
78378.6
78148.2
77913.7
77675
77432
77184.6
76933.1
76677
76417.3
76152.8
75884.4
75611.3
75334.1
75053.3
74768.5
74479.8
74187.4
73891.3
73591.8
73289.1
72983.1
72674.2
72362.5
72048.2
71731.5
71412.6
71091.7
70769.1
70445
70119.7
69793.4
69466.3
69138.7
68811
68483.4
68156.1
67829.6
67504
67179.8
66857.2
66536.6
66218.3
65902.6
65589.9
65280.6
64974.9
64673.3
64376.1
64083.6
63796.3
63514.5
63238.5
62968.7
62705.4
62449
62199.6
61957.7
61723.5
61497.2
61279.1
61069.1
60867.1
60673.6
60488.9
60312.9
60145.1
59984.9
59832.1
59684
59543.7
59388.1
87859.9
89193.4
89202.8
89216.7
89193.6
89144.7
89075.6
88991.9
88897.1
88792.1
88677.5
88554
88422.2
88282.7
88136.1
87982.8
87823.4
87658.3
87487.9
87312.5
87130.9
86946.6
86757.4
86563.5
86365.1
86162.4
85955.5
85744.2
85528.2
85307.7
85082.6
84852.9
84618.5
84379.3
84135.4
83886.7
83633.1
83374.6
83111.3
82842.9
82569.9
82291.7
82009.1
81721.4
81429
81132.1
80830.8
80525.2
80215.3
79901.2
79583.2
79261.3
78935.8
78606.8
78274.6
77939.3
77601.1
77260.3
76917
76571.7
76224.4
75875.4
75525.1
75173.7
74821.4
74468.7
74115.6
73762.7
73410.1
73058.3
72707.4
72358
72010.2
71664.5
71321.2
70980.6
70643.2
70309.2
69979.1
69653.2
69331.9
69015.5
68704.5
68399.3
68100.1
67807.4
67521.4
67242.7
66971.4
66707.9
66452.5
66205.5
65967.1
65737.5
65516.6
65304.3
65101.5
64908.6
64724.8
64550.1
64383.5
64225.1
64072.6
63929
63771.2
93693.1
95041.5
95052.1
95070.2
95052.3
95008.6
94945.4
94868.4
94780.5
94682.5
94574.7
94457.5
94331.4
94196.9
94054.3
93904.1
93746.6
93582.2
93411.3
93233.9
93050.6
92861.5
92666.6
92466.1
92259.9
92048.2
91831.1
91608.7
91380.7
91146.8
90907.6
90662.9
90412.5
90156.6
89895.1
89628
89355.3
89077
88793.2
88503.9
88209
87908.9
87602.9
87292.1
86976
86654.9
86329.1
85998.6
85663.4
85323.8
84980
84632.1
84280.4
83925.1
83566.3
83204.4
82839.5
82472
82102.1
81730
81356.1
80980.7
80604
80226.3
79848
79469.3
79090.7
78712.4
78334.7
77958.1
77582.9
77209.4
76838
76469
76102.9
75740.1
75380.8
75025.5
74674.5
74328.3
73987.3
73651.8
73322.2
72999
72682.4
72373
72070.9
71776.7
71490.6
71213
70944.2
70684.4
70434
70192.9
69961
69738.5
69526.8
69325.6
69134.3
68952.6
68779.9
68616.3
68459.6
68312.9
68153.2
99561.8
100926
100937
100958
100944
100903
100844
100772
100689
100595
100492
100379
100257
100126
99985.4
99836.7
99679.8
99515
99342.6
99162.7
98975.6
98782.2
98581.2
98373.7
98159.4
97938.5
97711.1
97477.3
97237
96990
96736.5
96476.6
96210.3
95937.5
95658.3
95372.7
95080.7
94782.5
94478.1
94167.5
93850.5
93528.3
93199.6
92865.3
92525.2
92179.6
91829.2
91473.5
91112.9
90747.6
90377.8
90003.7
89625.5
89243.6
88858.1
88469.3
88077.6
87683.2
87286.3
86887.4
86486.7
86084.5
85681.2
85277.1
84872.6
84467.9
84063.5
83659.7
83256.9
82855.4
82455.6
82058
81662.8
81270.5
80881.6
80496.3
80115.1
79738.4
79366.5
79000
78639.2
78284.5
77936.4
77595.1
77261.2
76935
76616.9
76307.2
76006.4
75714.7
75432.4
75159.9
74897.5
74644.9
74401.9
74169.7
73949.3
73740
73541.2
73352.6
73173.9
73005.3
72844.6
72695.1
72533.8
105463
106843
106854
106878
106866
106828
106771
106701
106621
106531
106431
106320
106200
106070
105931
105783
105625
105459
105284
105101
104909
104710
104503
104288
104065
103835
103597
103351
103099
102838
102570
102295
102012
101723
101426
101121
100810
100492
100166
99834.6
99495.7
99150.5
98798.8
98440.6
98076.5
97706.6
97331.1
96950.1
96563.8
96172.5
95776.4
95375.8
94971
94562.2
94149.7
93733.9
93315.1
92893.5
92469.6
92043.6
91615.8
91186.7
90756.7
90325.9
89895
89464.1
89033.8
88604.3
88176.1
87749.6
87325.2
86903.3
86484.3
86068.7
85656.7
85249
84845.8
84447.6
84054.9
83668
83287.4
82913.5
82546.7
82187.5
81836.2
81493.3
81159.1
80834
80518.4
80212.6
79917
79631.9
79357.4
79093.2
78839.4
78597.8
78368.8
78151.4
77945.1
77749.9
77565.4
77392
77227.6
77075.5
76912.8
111395
112791
112802
112828
112818
112781
112725
112657
112579
112490
112391
112282
112162
112033
111893
111744
111585
111416
111238
111050
110853
110648
110434
110211
109979
109739
109490
109232
108967
108692
108410
108119
107820
107513
107198
106875
106544
106205
105859
105505
105144
104776
104401
104019
103630
103235
102835
102428
102016
101598
101176
100748
100317
99880.7
99441
98997.9
98551.7
98102.8
97651.5
97198.1
96743.2
96287
95829.9
95372.4
94914.8
94457.6
94001.1
93545.9
93092.2
92640.6
92191.4
91745.1
91302.2
90863
90428.1
89997.8
89572.6
89152.9
88739.2
88331.9
87931.5
87538.4
87153
86775.7
86407.1
86047.4
85697.2
85356.7
85026.4
84706.6
84397.7
84100.1
83813.5
83537.4
83273.4
83022.7
82785.1
82559.6
82345.8
82144.1
81954.2
81776.2
81608.3
81453.7
81289.9
117357
118769
118780
118808
118799
118762
118706
118638
118561
118472
118374
118264
118144
118014
117873
117721
117559
117387
117205
117012
116809
116598
116376
116144
115902
115652
115391
115121
114842
114554
114256
113949
113634
113309
112975
112633
112282
111923
111555
111179
110796
110405
110006
109600
109186
108766
108340
107908
107469
107025
106576
106121
105662
105199
104732
104261
103787
103311
102832
102351
101868
101385
100901
100416
99931.7
99448
98965.3
98484
98004.7
97527.9
97053.8
96583.1
96116.1
95653.3
95195.3
94742.4
94295
93853.8
93419.1
92991.4
92571.2
92158.8
91754.8
91359.6
90973.6
90597.2
90231
89875.1
89530.2
89196.5
88874.4
88564.1
88265.2
87977.7
87703.8
87444.1
87197.9
86964.2
86743.3
86535.3
86340
86157.7
85986.3
85829.7
85664.9
123347
124777
124788
124816
124808
124770
124714
124646
124568
124479
124380
124269
124148
124015
123871
123717
123551
123374
123187
122989
122778
122560
122329
122088
121836
121574
121302
121019
120726
120423
120110
119787
119454
119111
118759
118397
118026
117646
117257
116858
116452
116037
115614
115183
114745
114300
113847
113389
112923
112452
111976
111494
111008
110517
110022
109523
109021
108517
108010
107501
106991
106480
105968
105457
104945
104435
103926
103418
102913
102411
101912
101417
100926
100439
99958
99482.4
99012.9
98550.1
98094.4
97646.2
97206.1
96774.6
96351.9
95938.7
95535.4
95142.4
94760.1
94389.1
94029.5
93681.9
93346.7
93023.8
92712.4
92413.9
92130.5
91861.7
91606.7
91365.1
91137.1
90923.1
90722.7
90536.1
90361.7
90202.9
90037.5
129366
130813
130824
130853
130846
130807
130749
130680
130601
130510
130409
130297
130173
130037
129890
129731
129561
129379
129186
128981
128762
128534
128296
128045
127782
127509
127224
126928
126620
126302
125973
125633
125282
124921
124549
124167
123776
123374
122962
122542
122112
121673
121225
120770
120306
119835
119356
118871
118379
117881
117377
116867
116353
115834
115311
114784
114254
113721
113186
112650
112111
111572
111033
110494
109955
109418
108882
108349
107818
107290
106766
106246
105730
105220
104716
104217
103726
103241
102765
102296
101836
101385
100944
100513
100092
99682.7
99284.5
98898.1
98524.1
98162.7
97814.3
97478.6
97155
96846
96553.1
96275.3
96011.5
95762
95527.3
95307.3
95101.9
94911.3
94733.9
94573.3
94407.3
135414
136879
136888
136918
136911
136871
136811
136740
136659
136567
136463
136348
136221
136081
135930
135766
135590
135402
135202
134989
134763
134527
134277
134015
133742
133456
133157
132847
132525
132191
131845
131488
131119
130739
130347
129945
129532
129108
128674
128230
127776
127313
126841
126359
125870
125373
124867
124355
123835
123309
122777
122240
121697
121150
120598
120043
119485
118923
118360
117795
117228
116661
116094
115527
114962
114397
113835
113275
112718
112164
111615
111070
110530
109996
109468
108947
108434
107927
107430
106941
106461
105991
105531
105082
104644
104218
103804
103402
103014
102639
102277
101928
101593
101274
100971
100684
100412
100155
99913.5
99687.7
99477.5
99283.1
99102.9
98940.6
98774.3
141491
142974
142982
143013
143005
142963
142901
142828
142745
142650
142543
142424
142293
142149
141992
141822
141640
141445
141237
141016
140781
140535
140274
140001
139715
139416
139104
138779
138441
138091
137728
137352
136965
136565
136153
135729
135295
134848
134391
133923
133445
132957
132460
131953
131437
130912
130380
129840
129293
128739
128178
127612
127041
126465
125884
125300
124713
124123
123531
122937
122342
121747
121151
120557
119963
119372
118782
118195
117612
117033
116458
115889
115325
114767
114215
113672
113135
112608
112089
111579
111080
110590
110112
109645
109190
108747
108317
107901
107498
107109
106734
106373
106026
105697
105385
105089
104808
104543
104296
104064
103849
103651
103468
103305
103138
147599
149099
149106
149137
149129
149084
149019
148944
148858
148759
148649
148526
148389
148240
148078
147902
147712
147509
147293
147063
146816
146559
146289
146003
145704
145391
145065
144724
144370
144003
143622
143227
142820
142400
141967
141522
141065
140595
140115
139622
139119
138606
138082
137549
137006
136454
135894
135326
134751
134168
133579
132984
132384
131778
131169
130555
129939
129320
128698
128076
127452
126828
126204
125582
124960
124341
123724
123111
122502
121896
121296
120702
120113
119531
118957
118390
117831
117282
116742
116212
115693
115184
114687
114203
113730
113271
112826
112394
111977
111574
111186
110812
110454
110116
109794
109488
109199
108928
108673
108436
108217
108015
107830
107665
107499
153738
155256
155261
155292
155282
155234
155167
155089
154999
154897
154782
154654
154512
154357
154188
154004
153807
153595
153370
153129
152874
152605
152321
152023
151710
151382
151040
150684
150312
149927
149527
149114
148686
148245
147791
147323
146843
146350
145844
145327
144799
144259
143709
143148
142578
141999
141410
140814
140209
139598
138979
138355
137725
137090
136451
135808
135162
134513
133862
133210
132558
131905
131253
130601
129952
129305
128661
128021
127385
126754
126128
125508
124895
124289
123691
123102
122521
121950
121389
120838
120299
119772
119256
118754
118265
117789
117328
116881
116450
116034
115632
115245
114878
114529
114197
113883
113586
113307
113046
112804
112580
112376
112188
112022
111855
159908
161444
161447
161478
161466
161416
161345
161263
161170
161063
160944
160810
160662
160500
160324
160132
159926
159705
159469
159218
158951
158671
158373
158061
157733
157390
157032
156658
156269
155865
155446
155012
154564
154101
153624
153133
152629
152112
151581
151038
150484
149917
149339
148751
148153
147545
146928
146302
145668
145027
144379
143725
143065
142400
141731
141058
140381
139703
139022
138341
137659
136977
136296
135616
134938
134264
133592
132925
132262
131605
130954
130309
129671
129041
128420
127807
127204
126611
126029
125458
124899
124353
123819
123299
122792
122300
121823
121362
120917
120487
120071
119673
119296
118937
118595
118272
117967
117681
117414
117167
116939
116731
116541
116374
116208
166112
167666
167666
167696
167682
167628
167554
167469
167371
167260
167135
166995
166841
166671
166487
166286
166071
165840
165593
165331
165049
164755
164446
164119
163776
163416
163041
162649
162241
161818
161378
160923
160453
159968
159467
158953
158424
157881
157325
156756
156174
155580
154974
154358
153731
153094
152447
151791
151128
150456
149778
149093
148403
147707
147008
146304
145597
144889
144178
143467
142755
142043
141333
140625
139919
139216
138517
137822
137133
136449
135772
135102
134440
133786
133141
132505
131880
131265
130662
130071
129492
128927
128375
127837
127313
126805
126313
125837
125377
124933
124505
124096
123708
123339
122988
122655
122343
122050
121778
121525
121293
121082
120891
120722
120557
172350
173921
173920
173948
173932
173874
173796
173706
173604
173488
173357
173210
173049
172871
172678
172468
172242
172000
171742
171466
171174
170866
170540
170197
169838
169461
169067
168657
168229
167785
167325
166848
166355
165846
165322
164782
164228
163659
163076
162479
161870
161248
160613
159968
159311
158644
157967
157282
156587
155885
155176
154460
153739
153012
152281
151547
150810
150070
149329
148587
147846
147104
146365
145627
144893
144162
143435
142713
141996
141286
140583
139888
139201
138523
137854
137196
136548
135912
135288
134676
134078
133493
132923
132367
131827
131303
130795
130305
129831
129373
128932
128513
128114
127735
127374
127033
126713
126414
126135
125878
125642
125428
125235
125066
124901
178624
180212
180208
180236
180216
180154
180072
179978
179870
179748
179611
179457
179288
179101
178898
178679
178442
178188
177917
177628
177321
176999
176657
176298
175921
175526
175113
174683
174234
173769
173286
172786
172270
171736
171187
170621
170041
169445
168834
168210
167572
166920
166257
165581
164894
164197
163489
162772
162047
161313
160572
159825
159072
158314
157552
156786
156017
155247
154475
153702
152930
152159
151390
150623
149860
149100
148345
147596
146852
146116
145387
144666
143954
143252
142560
141879
141209
140551
139906
139274
138656
138052
137464
136891
136334
135794
135271
134766
134277
133805
133353
132923
132514
132124
131754
131405
131078
130772
130488
130226
129986
129770
129575
129405
129241
184935
186541
186534
186560
186536
186470
186383
186284
186171
186043
185898
185737
185559
185363
185150
184919
184671
184404
184120
183817
183493
183154
182798
182421
182025
181611
181178
180727
180257
179769
179263
178739
178198
177639
177063
176472
175863
175240
174601
173947
173279
172598
171904
171198
170480
169751
169012
168263
167505
166740
165967
165188
164402
163612
162818
162020
161220
160418
159615
158812
158009
157207
156408
155612
154819
154031
153248
152471
151701
150937
150183
149436
148700
147973
147257
146553
145861
145182
144516
143864
143226
142604
141997
141407
140833
140277
139739
139219
138716
138231
137768
137327
136907
136507
136128
135771
135436
135124
134834
134568
134325
134105
133909
133739
133576
191286
192908
192898
192922
192895
192824
192732
192627
192508
192373
192221
192052
191864
191659
191434
191192
190930
190650
190351
190033
189695
189339
188963
188568
188153
187718
187265
186791
186299
185787
185257
184708
184140
183555
182952
182333
181696
181043
180375
179691
178993
178281
177555
176818
176068
175307
174535
173754
172964
172165
171360
170548
169730
168907
168080
167250
166418
165584
164749
163914
163080
162248
161419
160593
159771
158954
158143
157338
156540
155750
154969
154198
153436
152685
151946
151219
150505
149804
149117
148445
147788
147147
146522
145915
145324
144752
144199
143665
143147
142650
142175
141724
141293
140883
140496
140131
139789
139470
139175
138904
138658
138436
138238
138068
137906
197678
199316
199303
199325
199293
199216
199120
199009
198883
198741
198581
198403
198205
197988
197752
197497
197222
196928
196613
196279
195923
195550
195155
194740
194304
193849
193372
192876
192359
191823
191267
190692
190098
189485
188854
188205
187539
186856
186157
185442
184712
183969
183211
182440
181658
180864
180059
179244
178421
177589
176750
175904
175053
174197
173337
172474
171609
170743
169876
169010
168145
167282
166422
165566
164714
163868
163029
162196
161371
160554
159747
158950
158164
157389
156626
155876
155139
154417
153709
153017
152341
151681
151039
150414
149807
149220
148652
148102
147571
147061
146576
146113
145672
145252
144856
144483
144134
143810
143510
143234
142985
142761
142562
142391
142231
204113
205766
205751
205770
205733
205650
205548
205431
205299
205148
204980
204791
204583
204355
204106
203837
203548
203238
202908
202556
202180
201788
201374
200938
200481
200002
199503
198982
198440
197878
197295
196692
196070
195429
194768
194089
193392
192678
191947
191200
190438
189661
188870
188066
187250
186422
185583
184734
183876
183010
182137
181257
180372
179482
178589
177693
176795
175895
174996
174098
173201
172307
171416
170530
169649
168774
167905
167044
166192
165349
164515
163693
162881
162082
161296
160523
159765
159021
158292
157580
156885
156207
155546
154905
154282
153679
153096
152531
151986
151465
150969
150495
150043
149615
149210
148829
148473
148143
147838
147558
147305
147079
146879
146709
146551
210593
212260
212242
212259
212217
212128
212020
211896
211756
211597
211418
211220
211000
210759
210497
210213
209909
209582
209234
208864
208471
208058
207622
207164
206683
206181
205656
205110
204542
203952
203341
202709
202058
201386
200695
199985
199256
198509
197746
196965
196169
195359
194533
193695
192844
191981
191107
190223
189330
188429
187521
186607
185687
184763
183835
182905
181973
181041
180109
179178
178249
177324
176402
175485
174574
173669
172772
171883
171003
170133
169274
168425
167589
166766
165956
165161
164380
163615
162866
162134
161419
160723
160045
159386
158747
158129
157531
156952
156394
155862
155354
154869
154407
153969
153556
153168
152806
152469
152159
151876
151620
151392
151191
151021
150864
217120
218801
218781
218794
218746
218651
218536
218405
218256
218088
217900
217690
217458
217204
216927
216628
216306
215962
215596
215206
214791
214358
213899
213418
212913
212385
211834
211261
210665
210046
209406
208744
208062
207358
206635
205892
205130
204350
203552
202737
201907
201061
200200
199326
198439
197540
196630
195711
194782
193845
192901
191951
190996
190037
189074
188110
187144
186178
185213
184249
183288
182331
181378
180430
179489
178555
177629
176712
175804
174907
174021
173148
172287
171439
170606
169788
168985
168199
167430
166678
165944
165229
164534
163859
163204
162570
161957
161363
160794
160250
159731
159235
158763
158316
157895
157500
157131
156789
156474
156187
155928
155698
155497
155327
155172
223698
225392
225369
225379
225324
225222
225100
224961
224803
224625
224426
224204
223958
223690
223398
223082
222743
222380
221994
221583
221148
220690
220208
219701
219170
218616
218037
217435
216810
216161
215490
214797
214082
213346
212589
211812
211015
210200
209367
208516
207649
206767
205870
204959
204035
203099
202153
201196
200231
199257
198277
197291
196299
195304
194307
193307
192307
191306
190308
189311
188317
187328
186343
185365
184393
183430
182475
181529
180594
179670
178758
177859
176973
176102
175245
174404
173580
172772
171983
171211
170459
169726
169013
168321
167651
167002
166373
165766
165185
164630
164099
163593
163111
162655
162226
161823
161448
161101
160781
160491
160230
159998
159796
159626
159473
230328
232033
232008
232015
231953
231844
231714
231567
231399
231210
230999
230763
230504
230220
229911
229578
229220
228837
228429
227997
227536
227056
226548
226015
225457
224874
224266
223634
222978
222297
221594
220868
220119
219348
218556
217744
216911
216059
215189
214302
213397
212477
211542
210593
209632
208658
207674
206679
205676
204665
203647
202624
201596
200565
199531
198496
197461
196426
195393
194363
193336
192314
191298
190289
189287
188293
187309