/*--------------------------------*- C++ -*----------------------------------*\
  =========                 |
  \\      /  F ield         | OpenFOAM: The Open Source CFD Toolbox
   \\    /   O peration     | Website:  https://openfoam.org
    \\  /    A nd           | Version:  6
     \\/     M anipulation  |
\*---------------------------------------------------------------------------*/
FoamFile
{
    version     2.0;
    format      ascii;
    class       volVectorField;
    location    "0";
    object      U;
}
// * * * * * * * * * * * * * * * * * * * * * * * * * * * * * * * * * * * * * //

dimensions      [0 1 -1 0 0 0 0];

internalField   nonuniform List<vector> 
18060
(
(-711.781 -127490 0)
(-1085.55 -103141 0)
(-800.691 -94914.7 1.07712e-23)
(-1195.81 -93600.6 6.95899e-25)
(-1610.17 -92594.7 0)
(-2124.95 -92171.1 5.73602e-25)
(-2771.81 -91618.8 6.78221e-25)
(-3454.55 -91096.3 0)
(-4266.57 -90949.5 -1.60128e-24)
(-5211.82 -90481.3 -1.30373e-24)
(-6148.16 -89949.1 0)
(-6908.34 -89071.2 0)
(-7477.77 -88594 9.0853e-25)
(-8022.29 -88119 0)
(-8522.47 -87797 -8.00756e-25)
(-8992.39 -87472.3 0)
(-9400.11 -87254.4 0)
(-9763.05 -87105 0)
(-10077.7 -87052.6 0)
(-10352.5 -87090.6 0)
(-10589.8 -87223.9 0)
(-10793.3 -87451.8 0)
(-10965.2 -87774.9 0)
(-11108.1 -88192.7 0)
(-11223.5 -88705.1 0)
(-11312.7 -89311.6 0)
(-11377.4 -90011.4 0)
(-11418.4 -90803.7 0)
(-11436.6 -91687.3 0)
(-11432.9 -92661.1 0)
(-11407.7 -93723.6 0)
(-11361.6 -94873 0)
(-11294.9 -96107.7 0)
(-11207.7 -97425.6 1.95675e-25)
(-11100.4 -98824.7 2.26998e-25)
(-10972.7 -100303 0)
(-10824.8 -101857 0)
(-10656.4 -103486 0)
(-10467.4 -105187 -3.55552e-25)
(-10257.6 -106957 -3.89043e-25)
(-10026.5 -108793 0)
(-9774.04 -110692 0)
(-9499.78 -112652 -4.93671e-25)
(-9203.43 -114670 -9.93622e-41)
(-8884.66 -116741 5.66965e-25)
(-8543.17 -118864 0)
(-8178.69 -121034 0)
(-7790.96 -123248 0)
(-7379.78 -125502 0)
(-6945.01 -127793 0)
(-6486.49 -130117 0)
(-6004.28 -132468 0)
(-5498.47 -134845 0)
(-4969.12 -137241 0)
(-4416.41 -139653 0)
(-3840.61 -142077 0)
(-3242.08 -144507 0)
(-2621.27 -146939 0)
(-1978.72 -149369 0)
(-1315.07 -151791 0)
(-631.055 -154202 0)
(72.4803 -156596 0)
(794.601 -158968 0)
(1534.27 -161314 1.26761e-24)
(2290.35 -163630 1.29383e-24)
(3061.61 -165909 0)
(3846.71 -168149 0)
(4644.25 -170345 0)
(5452.7 -172491 1.37389e-24)
(6270.49 -174585 1.38686e-24)
(7095.93 -176623 0)
(7927.28 -178599 0)
(8762.72 -180512 0)
(9600.4 -182358 0)
(10438.4 -184133 0)
(11274.7 -185836 0)
(12107.3 -187463 0)
(12934.2 -189013 0)
(13753.4 -190483 0)
(14562.7 -191874 0)
(15360.1 -193183 0)
(16143.5 -194411 0)
(16910.9 -195557 0)
(17660.3 -196622 0)
(18389.6 -197606 0)
(19097 -198512 0)
(19780.4 -199340 0)
(20438.1 -200093 0)
(21068.2 -200774 0)
(21669 -201387 0)
(22239 -201934 0)
(22776.5 -202421 0)
(23280 -202853 0)
(23748.3 -203233 0)
(24180.2 -203569 0)
(24574.5 -203865 0)
(24930.3 -204128 0)
(25246.9 -204363 0)
(25523.7 -204577 0)
(25760.6 -204774 0)
(25957.5 -204958 0)
(26114.8 -205130 0)
(26233.6 -205290 0)
(26314.4 -205428 0)
(26365.6 -205529 0)
(-4495.24 -116359 0)
(-9353.4 -103377 0)
(-8189.76 -96481.2 1.75506e-23)
(-6815.32 -94200.3 2.35347e-24)
(-6210.55 -92568.7 0)
(-6057.98 -91641.1 -2.9026e-25)
(-6137.05 -90789.3 -4.99105e-25)
(-6303.45 -90152.5 0)
(-6608.04 -89638.5 8.77361e-25)
(-7040.18 -89160.7 3.07754e-25)
(-7513.84 -88630.5 0)
(-7951.41 -88117.9 0)
(-8347.05 -87678.3 -5.13142e-25)
(-8729.65 -87323.2 2.18852e-39)
(-9101.48 -87031.6 3.02272e-25)
(-9453.94 -86808.6 0)
(-9778.95 -86659.1 0)
(-10074.4 -86590.2 0)
(-10339.6 -86605.1 0)
(-10575.1 -86706.8 0)
(-10781.7 -86897.2 0)
(-10960.4 -87177.3 0)
(-11112.5 -87548 0)
(-11238.9 -88009.6 0)
(-11340.7 -88562.4 0)
(-11418.9 -89206.1 0)
(-11474.2 -89940.6 0)
(-11507.4 -90765.2 0)
(-11519 -91679.3 0)
(-11509.6 -92681.6 0)
(-11479.7 -93771 0)
(-11429.6 -94946.1 0)
(-11359.5 -96205.2 0)
(-11269.4 -97546.6 8.14029e-26)
(-11159.5 -98968.3 7.96948e-26)
(-11029.7 -100468 0)
(-10879.8 -102044 0)
(-10709.6 -103694 0)
(-10519 -105415 -7.98774e-26)
(-10307.6 -107205 -1.36595e-25)
(-10075.2 -109060 -5.65909e-26)
(-9821.28 -110979 0)
(-9545.63 -112958 -9.34031e-26)
(-9247.85 -114994 -6.59927e-26)
(-8927.62 -117084 3.51638e-26)
(-8584.64 -119224 0)
(-8218.59 -121412 0)
(-7829.23 -123643 0)
(-7416.34 -125914 -9.36328e-26)
(-6979.68 -128221 -1.00442e-25)
(-6519.27 -130560 0)
(-6035.21 -132926 0)
(-5527.36 -135317 0)
(-4995.9 -137727 0)
(-4440.99 -140152 0)
(-3862.92 -142588 0)
(-3262.05 -145029 0)
(-2638.84 -147472 0)
(-1993.83 -149911 0)
(-1327.67 -152342 0)
(-641.124 -154760 0)
(64.9772 -157160 0)
(789.681 -159538 0)
(1531.94 -161888 1.15758e-25)
(2290.61 -164206 3.61014e-25)
(3064.44 -166488 2.494e-25)
(3852.1 -168728 0)
(4652.15 -170923 0)
(5463.08 -173068 1.36034e-25)
(6283.28 -175159 1.39078e-25)
(7111.07 -177192 0)
(7944.69 -179164 0)
(8782.33 -181070 0)
(9622.1 -182908 0)
(10462.1 -184674 0)
(11300.3 -186366 0)
(12134.6 -187982 0)
(12963.2 -189520 0)
(13783.9 -190978 0)
(14594.6 -192354 0)
(15393.2 -193649 0)
(16177.8 -194861 0)
(16946.2 -195990 0)
(17696.4 -197037 0)
(18426.4 -198004 0)
(19134.3 -198890 0)
(19818.2 -199699 0)
(20476.2 -200433 0)
(21106.4 -201094 0)
(21707.3 -201686 0)
(22277.2 -202213 0)
(22814.5 -202679 0)
(23317.8 -203089 0)
(23785.6 -203448 0)
(24216.9 -203763 0)
(24610.6 -204038 0)
(24965.6 -204280 0)
(25281.3 -204495 0)
(25557.2 -204689 0)
(25793 -204866 0)
(25988.6 -205031 0)
(26144.6 -205185 -3.29999e-25)
(26262 -205327 -3.86973e-25)
(26341.3 -205450 0)
(26393.8 -205537 0)
(-2157.01 -104856 0)
(-5455.87 -101148 0)
(-6453.36 -97259.9 2.26859e-24)
(-6532.31 -94868.6 3.16426e-25)
(-6545.59 -93028.4 0)
(-6615.96 -91724.2 0)
(-6770.14 -90701.5 3.4963e-25)
(-6987.11 -89876.9 1.96172e-25)
(-7269.79 -89175.6 2.00146e-25)
(-7608.51 -88572.1 1.69339e-25)
(-7977.32 -88026.9 -3.83704e-25)
(-8347.96 -87542.5 -2.818e-25)
(-8708.88 -87122.7 -1.8553e-25)
(-9058.3 -86780.2 7.30541e-25)
(-9393.84 -86514.1 9.81397e-25)
(-9711.23 -86326.7 0)
(-10006.4 -86219.1 0)
(-10277 -86194.1 0)
(-10522 -86253.3 0)
(-10741 -86398.4 -3.03305e-25)
(-10934.2 -86630.4 -2.81834e-25)
(-11102.2 -86950.4 0)
(-11245.6 -87358.8 0)
(-11365 -87856.1 0)
(-11461.5 -88442.6 0)
(-11535.2 -89118.4 0)
(-11587 -89883.3 0)
(-11617.3 -90736.9 0)
(-11626.6 -91678.5 0)
(-11615.3 -92707.1 9.6766e-26)
(-11583.9 -93821.8 7.50535e-26)
(-11532.4 -95021.3 0)
(-11461.1 -96304 0)
(-11369.9 -97668.3 3.98664e-27)
(-11258.9 -99112.3 -7.46616e-27)
(-11128 -100634 0)
(-10977 -102232 0)
(-10805.7 -103903 0)
(-10613.8 -105645 5.46195e-26)
(-10401 -107455 1.33324e-25)
(-10166.9 -109331 7.88057e-26)
(-9911.26 -111270 0)
(-9633.67 -113270 1.03275e-25)
(-9333.76 -115326 1.15663e-25)
(-9011.21 -117435 0)
(-8665.68 -119595 0)
(-8296.91 -121802 0)
(-7904.6 -124052 0)
(-7488.54 -126342 1.78117e-25)
(-7048.68 -128667 1.91373e-25)
(-6584.81 -131024 0)
(-6096.98 -133407 0)
(-5585.22 -135815 0)
(-5049.66 -138240 0)
(-4490.48 -140681 0)
(-3907.99 -143130 0)
(-3302.55 -145585 0)
(-2674.63 -148040 0)
(-2024.8 -150491 0)
(-1353.73 -152933 0)
(-662.184 -155360 0)
(48.975 -157769 0)
(778.778 -160154 6.77608e-25)
(1526.16 -162510 6.96081e-25)
(2289.94 -164833 -3.56831e-25)
(3068.87 -167118 -3.65154e-25)
(3861.58 -169361 0)
(4666.63 -171556 0)
(5482.45 -173701 0)
(6307.45 -175790 0)
(7139.9 -177820 0)
(7978.04 -179786 0)
(8820.03 -181686 0)
(9663.97 -183517 0)
(10507.9 -185275 0)
(11349.9 -186957 0)
(12187.8 -188562 0)
(13019.6 -190087 0)
(13843.3 -191531 0)
(14656.8 -192893 0)
(15458 -194171 0)
(16244.8 -195366 0)
(17015.2 -196478 0)
(17767.1 -197506 0)
(18498.6 -198453 0)
(19207.7 -199319 0)
(19892.5 -200107 0)
(20551.1 -200819 0)
(21181.8 -201458 0)
(21782.9 -202027 0)
(22352.7 -202531 0)
(22889.6 -202974 0)
(23392.4 -203360 0)
(23859.5 -203696 0)
(24289.8 -203987 0)
(24682.3 -204238 0)
(25035.9 -204457 0)
(25350 -204648 -8.36136e-25)
(25624.1 -204819 -8.44669e-25)
(25857.8 -204974 0)
(26051.3 -205117 0)
(26204.9 -205250 -4.50036e-25)
(26320.1 -205373 -1.40482e-24)
(26397.3 -205478 -9.83972e-25)
(26450.7 -205550 0)
(-1300.59 -99347.3 -4.53458e-24)
(-3554.6 -97882.9 -3.18176e-24)
(-4901 -95875.5 -8.44193e-25)
(-5679.96 -94024.1 5.82845e-25)
(-6208.46 -92510.2 0)
(-6607.72 -91275.6 -2.24986e-25)
(-6971.47 -90252.1 -2.55544e-40)
(-7328.43 -89391 1.26818e-25)
(-7689.41 -88655.3 1.50497e-25)
(-8056.18 -88022.5 1.75629e-25)
(-8423.64 -87475.3 -1.81417e-25)
(-8781.58 -87005.5 -2.01916e-25)
(-9123.19 -86612.2 0)
(-9446.63 -86297.9 5.04939e-25)
(-9751.28 -86063.7 5.21651e-25)
(-10036.7 -85910.7 0)
(-10301.2 -85839.7 0)
(-10544.3 -85852 0)
(-10765.2 -85948.6 0)
(-10963.7 -86130.3 -2.23921e-25)
(-11139.9 -86397.8 -4.23224e-25)
(-11294.2 -86751.8 -1.99279e-25)
(-11426.6 -87192.9 -1.87101e-25)
(-11537.2 -87721.6 -1.74957e-25)
(-11626.2 -88338.1 0)
(-11694 -89042.7 0)
(-11741.1 -89835 0)
(-11767.7 -90714.8 0)
(-11774 -91681.5 0)
(-11760.4 -92734.3 9.34098e-26)
(-11727 -93872.3 7.84024e-26)
(-11674 -95094.3 0)
(-11601.2 -96398.8 4.69651e-26)
(-11508.8 -97784.5 6.12851e-26)
(-11396.6 -99249.4 1.39532e-26)
(-11264.5 -100792 0)
(-11112.1 -102410 0)
(-10939.3 -104101 0)
(-10745.8 -105862 5.66531e-26)
(-10531.1 -107692 1.50164e-25)
(-10295 -109588 9.38311e-26)
(-10037.1 -111546 0)
(-9756.91 -113564 0)
(-9454.19 -115639 -1.51269e-25)
(-9128.51 -117768 -1.71128e-25)
(-8779.56 -119946 0)
(-8407.04 -122171 0)
(-8010.65 -124439 -2.32167e-25)
(-7590.31 -126746 -2.53421e-25)
(-7145.62 -129089 0)
(-6677 -131462 0)
(-6183.97 -133862 0)
(-5666.75 -136285 0)
(-5125.43 -138726 0)
(-4560.25 -141180 0)
(-3971.51 -143644 0)
(-3359.61 -146111 0)
(-2725.03 -148578 -4.43545e-25)
(-2068.38 -151040 -4.64425e-25)
(-1390.34 -153492 -4.85075e-25)
(-691.701 -155928 -5.05464e-25)
(26.6379 -158345 0)
(763.682 -160737 5.45222e-25)
(1518.33 -163099 5.64485e-25)
(2289.39 -165426 0)
(3075.57 -167715 0)
(3875.46 -169959 0)
(4687.6 -172156 0)
(5510.4 -174300 0)
(6342.21 -176387 0)
(7181.3 -178414 0)
(8025.87 -180376 0)
(8874.06 -182270 0)
(9723.93 -184094 0)
(10573.5 -185843 0)
(11420.8 -187516 0)
(12263.8 -189111 0)
(13100.3 -190624 0)
(13928.4 -192055 7.75177e-25)
(14745.8 -193403 7.82924e-25)
(15550.6 -194666 0)
(16340.7 -195845 0)
(17113.9 -196940 0)
(17868.3 -197951 0)
(18601.9 -198879 0)
(19312.7 -199726 0)
(19998.8 -200494 0)
(20658.4 -201186 0)
(21289.7 -201803 -8.20537e-25)
(21891.1 -202351 -8.22582e-25)
(22460.8 -202833 0)
(22997.4 -203254 0)
(23499.5 -203618 0)
(23965.6 -203932 0)
(24394.6 -204200 0)
(24785.5 -204429 0)
(25137.3 -204625 0)
(25449.2 -204794 -8.5475e-25)
(25720.9 -204943 -8.65729e-25)
(25952 -205077 0)
(26142.7 -205200 0)
(26293.4 -205313 0)
(26405.8 -205418 -9.60905e-25)
(26480.8 -205506 -1.00524e-24)
(26534.9 -205567 0)
(-959.757 -95662.8 2.8442e-24)
(-2755.29 -94969.7 1.88374e-24)
(-4164.83 -93884.9 -1.48019e-24)
(-5186.01 -92629 2.65325e-39)
(-5937.51 -91497.4 2.055e-25)
(-6542 -90465.6 6.55091e-26)
(-7053.99 -89549.3 -1.3507e-26)
(-7509.01 -88746.8 0)
(-7928.84 -88048.3 7.70038e-26)
(-8324.45 -87442.8 1.0718e-25)
(-8699.89 -86923.4 0)
(-9055.42 -86485.5 0)
(-9390.85 -86127.6 0)
(-9705.63 -85848.7 1.58881e-25)
(-9999.87 -85649.4 1.67122e-25)
(-10273.1 -85530.8 5.19256e-25)
(-10525.4 -85494 5.25652e-25)
(-10757 -85540 1.74518e-25)
(-10967.5 -85669.6 3.43569e-25)
(-11157.4 -85883.6 1.67601e-25)
(-11326.5 -86182.7 3.24711e-25)
(-11474.6 -86567.5 3.45028e-40)
(-11601.8 -87038.6 -1.17362e-39)
(-11708.4 -87596.4 2.82564e-25)
(-11794.6 -88241 0)
(-11860.4 -88972.6 0)
(-11906.1 -89791 0)
(-11932 -90695.9 0)
(-11938 -91686.8 0)
(-11924.3 -92763 0)
(-11891 -93923.7 0)
(-11838 -95167.8 1.77015e-25)
(-11765.4 -96493.9 1.39894e-25)
(-11672.9 -97900.6 6.77125e-26)
(-11560.5 -99386.3 4.15455e-26)
(-11427.9 -100949 0)
(-11274.9 -102587 0)
(-11101.1 -104298 4.09847e-26)
(-10906.2 -106079 7.01617e-26)
(-10689.9 -107929 9.9214e-26)
(-10451.8 -109844 1.28886e-25)
(-10191.4 -111821 1.58939e-25)
(-9908.38 -113858 9.46438e-26)
(-9602.37 -115952 -2.19005e-25)
(-9273.06 -118099 -1.25053e-25)
(-8920.03 -120296 0)
(-8543.02 -122539 3.12426e-25)
(-8141.73 -124825 1.72934e-25)
(-7715.98 -127150 -7.59341e-25)
(-7265.72 -129509 -6.15103e-25)
(-6790.86 -131898 0)
(-6291.34 -134315 4.73781e-25)
(-5767.25 -136753 2.53213e-25)
(-5218.73 -139208 -2.69534e-25)
(-4646.03 -141677 0)
(-4049.46 -144154 0)
(-3429.45 -146634 -6.36806e-25)
(-2786.53 -149112 -1.00381e-24)
(-2121.32 -151585 2.91884e-39)
(-1434.53 -154046 3.66711e-25)
(-727.004 -156492 2.82804e-39)
(0.338804 -158916 0)
(746.463 -161314 -4.13749e-25)
(1510.23 -163681 -8.58044e-25)
(2290.41 -166013 -4.44051e-25)
(3085.66 -168304 0)
(3894.56 -170551 4.73282e-25)
(4715.57 -172747 1.46233e-24)
(5547.1 -174890 1.00254e-24)
(6387.44 -176976 0)
(7234.83 -178999 0)
(8087.44 -180956 -1.08123e-24)
(8943.37 -182845 1.35818e-39)
(9800.66 -184661 1.12987e-24)
(10657.3 -186402 0)
(11511.3 -188066 0)
(12360.5 -189649 1.19689e-24)
(13202.9 -191151 1.21776e-24)
(14036.4 -192569 6.18892e-25)
(14858.8 -193903 6.28527e-25)
(15668.1 -195151 0)
(16462.1 -196314 0)
(17238.9 -197392 6.55488e-25)
(17996.4 -198385 6.63913e-25)
(18732.6 -199295 0)
(19445.6 -200123 0)
(20133.4 -200871 0)
(20794.2 -201543 1.39235e-24)
(21426.4 -202140 2.11249e-24)
(22028.1 -202667 1.42459e-24)
(22597.8 -203127 7.20683e-25)
(23134 -203526 -7.29438e-25)
(23635.2 -203869 -7.38785e-25)
(24100.1 -204160 -7.49105e-25)
(24527.6 -204406 -1.52045e-24)
(24916.6 -204613 -7.72596e-25)
(25266.2 -204787 0)
(25575.7 -204935 0)
(25844.5 -205063 -8.21661e-25)
(26072.6 -205176 -8.44099e-25)
(26260.1 -205278 0)
(26407.7 -205373 0)
(26517.2 -205460 0)
(26590 -205534 0)
(26644.7 -205583 0)
(-768.44 -92740.7 2.8281e-24)
(-2241.59 -92388 2.00128e-24)
(-3518.76 -91791.1 0)
(-4585.84 -91027.7 6.87262e-25)
(-5469.27 -90214.7 4.64377e-25)
(-6212.71 -89413.7 0)
(-6849.88 -88659.4 -4.14997e-25)
(-7407.52 -87969.4 -2.51023e-25)
(-7905.5 -87351.6 0)
(-8357.56 -86808.5 0)
(-8772.38 -86340.8 0)
(-9155.32 -85949 0)
(-9509.75 -85633.5 0)
(-9837.97 -85394.9 9.0441e-26)
(-10141.2 -85234.2 1.0452e-25)
(-10420.6 -85152.6 3.45751e-25)
(-10677.1 -85151.3 3.6908e-25)
(-10911.2 -85231.5 1.2787e-25)
(-11123.7 -85394.1 2.60761e-25)
(-11314.6 -85640.1 1.31226e-25)
(-11484.6 -85970.3 3.89017e-25)
(-11633.8 -86385.3 1.26449e-25)
(-11762.5 -86885.7 1.22188e-25)
(-11870.8 -87471.7 3.50479e-25)
(-11958.9 -88143.8 0)
(-12027 -88901.8 0)
(-12075.1 -89745.9 0)
(-12103.3 -90675.7 0)
(-12111.7 -91690.7 0)
(-12100.4 -92790.5 1.38649e-25)
(-12069.2 -93974 1.18473e-25)
(-12018.2 -95240.4 1.45981e-25)
(-11947.2 -96588.4 -6.40443e-40)
(-11856.1 -98016.6 -5.2141e-26)
(-11744.6 -99523.4 1.42111e-26)
(-11612.6 -101107 0)
(-11459.6 -102765 0)
(-11285.4 -104497 4.79659e-26)
(-11089.6 -106298 3.73628e-26)
(-10871.9 -108168 3.92294e-40)
(-10631.8 -110102 6.46958e-26)
(-10368.9 -112100 1.5744e-25)
(-10082.9 -114156 9.29766e-26)
(-9773.39 -116269 -1.07161e-25)
(-9439.93 -118435 0)
(-9082.3 -120651 0)
(-8700.02 -122913 3.03011e-25)
(-8293.1 -125217 3.33597e-25)
(-7861.09 -127559 -5.46811e-25)
(-7404.32 -129936 -5.88154e-25)
(-6922.29 -132342 0)
(-6415.16 -134775 4.52591e-25)
(-5883.01 -137228 2.41447e-25)
(-5326.02 -139699 -2.56601e-25)
(-4744.45 -142182 0)
(-4138.66 -144672 0)
(-3509.11 -147164 -6.03744e-25)
(-2856.35 -149655 -6.3367e-25)
(-2181.04 -152138 3.31699e-25)
(-1483.96 -154609 6.92884e-25)
(-765.952 -157063 3.61044e-25)
(-28.0053 -159495 0)
(728.806 -161899 -3.89742e-25)
(1503.3 -164272 -8.07599e-25)
(2294.2 -166607 -4.17638e-25)
(3100.12 -168901 0)
(3919.58 -171149 4.44593e-25)
(4751.01 -173346 1.37304e-24)
(5592.77 -175488 9.4098e-25)
(6443.11 -177571 0)
(7300.23 -179590 0)
(8162.25 -181543 -1.01434e-24)
(9027.22 -183425 -1.41109e-39)
(9893.18 -185234 1.06023e-24)
(10758.1 -186966 0)
(11619.8 -188620 0)
(12476.4 -190192 1.12454e-24)
(13325.6 -191681 2.28972e-24)
(14165.3 -193086 1.16463e-24)
(14993.5 -194405 0)
(15808.1 -195638 0)
(16606.8 -196785 0)
(17387.7 -197846 6.19703e-25)
(18148.8 -198821 6.28643e-25)
(18888 -199712 0)
(19603.4 -200521 0)
(20293.2 -201249 0)
(20955.5 -201900 1.32821e-24)
(21588.6 -202476 2.69283e-24)
(22190.7 -202981 2.04773e-24)
(22760.4 -203420 -6.92315e-25)
(23296.1 -203797 -2.10768e-24)
(23796.4 -204118 -7.13468e-25)
(24260 -204387 -7.25317e-25)
(24685.8 -204611 -1.47635e-24)
(25072.7 -204796 -7.52362e-25)
(25419.8 -204948 0)
(25726.5 -205074 -1.57235e-24)
(25992.4 -205181 -2.42026e-24)
(26217.2 -205273 -8.30593e-25)
(26401.4 -205356 0)
(26545.6 -205432 0)
(26652.4 -205501 -1.85952e-24)
(26723.2 -205560 -1.94666e-24)
(26778.5 -205600 0)
(-619.111 -90365.4 0)
(-1841.93 -90185.9 0)
(-2996.14 -89831 0)
(-4047.54 -89341.7 0)
(-4979.9 -88777.3 0)
(-5798.62 -88187.2 0)
(-6518.62 -87604.2 -1.68516e-24)
(-7155.91 -87050.7 -1.2431e-24)
(-7724.78 -86541.3 0)
(-8236.84 -86086 0)
(-8701.07 -85691.3 0)
(-9124.22 -85361.9 0)
(-9511.27 -85101.1 0)
(-9865.91 -84911.9 0)
(-10191 -84796.4 0)
(-10488.6 -84756.7 0)
(-10760.3 -84794.7 0)
(-11007.5 -84911.8 0)
(-11231.2 -85109.5 0)
(-11432.1 -85388.9 0)
(-11610.9 -85751.1 0)
(-11768.1 -86196.8 0)
(-11904.3 -86726.6 0)
(-12019.6 -87341.2 0)
(-12114.3 -88040.8 3.56534e-25)
(-12188.6 -88825.6 3.36955e-25)
(-12242.6 -89695.6 0)
(-12276.4 -90650.6 0)
(-12290 -91690.2 0)
(-12283.4 -92813.8 1.12625e-25)
(-12256.5 -94020.7 9.50167e-26)
(-12209.3 -95309.9 0)
(-12141.6 -96680.3 -5.63823e-26)
(-12053.2 -98130.6 -3.53992e-26)
(-11943.9 -99659.1 0)
(-11813.3 -101264 0)
(-11661.3 -102944 0)
(-11487.4 -104696 0)
(-11291.2 -106518 0)
(-11072.4 -108409 0)
(-10830.5 -110364 0)
(-10565.3 -112381 0)
(-10276.2 -114458 0)
(-9962.88 -116591 0)
(-9625.03 -118777 0)
(-9262.25 -121012 0)
(-8874.37 -123292 0)
(-8461.16 -125615 0)
(-8022.27 -127976 0)
(-7557.94 -130370 0)
(-7067.83 -132794 0)
(-6552.09 -135243 0)
(-6010.82 -137712 0)
(-5444.23 -140198 0)
(-4852.62 -142695 0)
(-4236.37 -145199 0)
(-3595.99 -147705 0)
(-2932.08 -150207 0)
(-2245.34 -152701 0)
(-1536.57 -155182 0)
(-806.704 -157644 0)
(-56.7521 -160084 0)
(712.153 -162494 0)
(1498.78 -164872 0)
(2301.79 -167212 0)
(3119.76 -169508 0)
(3951.14 -171757 0)
(4794.33 -173954 0)
(5647.62 -176095 0)
(6509.21 -178175 0)
(7377.27 -180190 0)
(8249.86 -182137 0)
(9125 -184013 -2.07798e-24)
(10000.7 -185814 -2.12364e-24)
(10874.8 -187537 0)
(11745.3 -189180 0)
(12610 -190740 0)
(13466.9 -192217 1.14711e-24)
(14313.7 -193608 1.16701e-24)
(15148.3 -194912 0)
(15968.6 -196129 0)
(16772.6 -197259 2.44775e-24)
(17558.1 -198302 2.48422e-24)
(18323.1 -199259 0)
(19065.7 -200131 0)
(19783.9 -200920 0)
(20475.9 -201628 0)
(21139.7 -202258 0)
(21773.8 -202813 0)
(22376.5 -203297 0)
(22946.1 -203714 -1.38688e-24)
(23481.3 -204069 -1.40713e-24)
(23980.6 -204367 0)
(24442.8 -204613 0)
(24866.7 -204815 -2.95448e-24)
(25251.3 -204978 6.65193e-39)
(25595.9 -205108 6.14477e-24)
(25899.7 -205212 1.57113e-24)
(26162.3 -205297 -1.61109e-24)
(26383.8 -205369 -3.31381e-24)
(26564.6 -205431 -3.41932e-24)
(26705.6 -205488 0)
(26809.8 -205541 -1.84169e-24)
(26878.9 -205586 -1.92046e-24)
(26934.5 -205617 0)
(-545.546 -88357.3 0)
(-1630.71 -88242.3 0)
(-2680.06 -88008.9 -1.04931e-24)
(-3668.71 -87684.7 -9.02417e-25)
(-4581.92 -87299.8 0)
(-5415.23 -86881.3 0)
(-6170.5 -86452.6 -1.1418e-24)
(-6853.48 -86033.1 -9.28958e-25)
(-7471.45 -85638.5 -3.65271e-25)
(-8031.76 -85281.2 -2.76206e-25)
(-8541.07 -84970.8 0)
(-9005.15 -84714.5 0)
(-9428.77 -84518.1 7.27128e-26)
(-9815.83 -84386.1 2.35285e-26)
(-10169.5 -84322.4 0)
(-10492.4 -84330 0)
(-10786.6 -84411.5 0)
(-11053.8 -84569.1 0)
(-11295.5 -84804.7 0)
(-11512.8 -85119.9 0)
(-11706.4 -85516 0)
(-11877.3 -85993.9 0)
(-12025.8 -86554.6 -1.4197e-25)
(-12152.7 -87198.8 -1.40835e-25)
(-12258.1 -87927 2.73966e-25)
(-12342.2 -88739.5 2.61219e-25)
(-12405.4 -89636.2 0)
(-12447.6 -90617.2 0)
(-12468.9 -91682.1 0)
(-12469.4 -92830.4 0)
(-12448.9 -94061.4 0)
(-12407.3 -95374.3 0)
(-12344.4 -96768 0)
(-12260.1 -98241.1 1.98183e-26)
(-12154.1 -99792.2 0)
(-12026.1 -101419 -2.10556e-40)
(-11875.8 -103121 -4.2738e-26)
(-11702.8 -104895 0)
(-11506.8 -106739 8.92704e-26)
(-11287.3 -108651 2.27489e-25)
(-11043.9 -110627 1.38691e-25)
(-10776.3 -112666 0)
(-10484.2 -114763 0)
(-10167 -116917 0)
(-9824.53 -119123 -2.44022e-25)
(-9456.31 -121378 -2.73398e-25)
(-9062.32 -123678 0)
(-8642.15 -126020 0)
(-8195.89 -128399 0)
(-7723.25 -130812 0)
(-7224.29 -133253 0)
(-6699.08 -135719 0)
(-6147.76 -138205 0)
(-5570.58 -140707 0)
(-4967.87 -143219 0)
(-4340.09 -145737 5.65951e-25)
(-3687.75 -148255 5.95855e-25)
(-3011.53 -150769 -6.25689e-25)
(-2312.16 -153274 -6.55409e-25)
(-1590.52 -155765 0)
(-847.564 -158236 7.1432e-25)
(-84.3809 -160683 7.43423e-25)
(697.846 -163100 0)
(1497.82 -165482 0)
(2314.16 -167826 0)
(3145.37 -170125 8.56485e-25)
(3989.85 -172375 8.83718e-25)
(4845.94 -174571 0)
(5711.86 -176710 0)
(6585.79 -178787 0)
(7465.82 -180798 0)
(8349.97 -182739 0)
(9236.22 -184608 -2.07217e-24)
(10122.5 -186400 -2.11891e-24)
(11006.7 -188114 0)
(11886.7 -189746 0)
(12760.3 -191294 0)
(13625.4 -192758 0)
(14479.9 -194134 1.16738e-24)
(15321.5 -195423 1.18728e-24)
(16148.1 -196624 0)
(16957.7 -197737 2.45141e-24)
(17748.2 -198762 2.48869e-24)
(18517.5 -199700 0)
(19263.7 -200553 0)
(19984.8 -201322 0)
(20679.1 -202009 0)
(21344.7 -202618 0)
(21979.9 -203151 0)
(22583.1 -203613 0)
(23152.7 -204007 0)
(23687.3 -204340 0)
(24185.5 -204615 0)
(24646.2 -204839 0)
(25068.1 -205018 -2.95981e-24)
(25450.4 -205158 -6.71087e-39)
(25792.2 -205266 6.14956e-24)
(26093 -205349 3.14246e-24)
(26352.5 -205412 1.60991e-24)
(26570.6 -205463 -1.65335e-24)
(26748 -205505 -3.40558e-24)
(26886 -205544 0)
(26987.7 -205580 -1.82455e-24)
(27055.3 -205612 -1.89483e-24)
(27111.3 -205634 0)
(-493.081 -86546.7 0)
(-1477.52 -86474.5 -8.97531e-25)
(-2443.21 -86324.4 -1.62614e-24)
(-3372.82 -86111.7 -7.49277e-25)
(-4253.34 -85852.6 0)
(-5077.31 -85563.9 0)
(-5841.68 -85261.3 0)
(-6546.72 -84959.7 0)
(-7194.86 -84672.7 -3.94626e-25)
(-7789.62 -84412.2 -3.20599e-25)
(-8334.98 -84188.3 0)
(-8834.92 -84009.3 0)
(-9293.12 -83882.2 2.75005e-25)
(-9712.91 -83812.8 1.8063e-25)
(-10097.2 -83805.8 0)
(-10448.5 -83865.1 1.4651e-26)
(-10768.9 -83994.2 -2.96953e-26)
(-11060.4 -84195.8 -3.91998e-26)
(-11324.3 -84472.4 0)
(-11562.1 -84826.1 0)
(-11774.9 -85258.3 0)
(-11963.4 -85770.6 0)
(-12128.2 -86364.1 -9.64635e-26)
(-12270.1 -87039.6 -9.89849e-26)
(-12389.5 -87797.8 0)
(-12486.6 -88639.2 0)
(-12561.7 -89564 0)
(-12614.8 -90572.2 0)
(-12646.2 -91663.5 0)
(-12655.7 -92837.7 -6.30098e-26)
(-12643.4 -94094 -3.81077e-40)
(-12609 -95431.6 3.66784e-26)
(-12552.5 -96849.6 0)
(-12473.6 -98346.6 -1.19097e-40)
(-12372 -99921.3 1.3148e-26)
(-12247.5 -101572 3.23467e-40)
(-12099.7 -103297 -5.20396e-26)
(-11928.3 -105093 0)
(-11732.9 -106960 9.50518e-26)
(-11513.1 -108894 2.3603e-25)
(-11268.5 -110892 1.41694e-25)
(-10998.8 -112953 1.65876e-25)
(-10703.5 -115072 0)
(-10382.4 -117247 -2.15386e-25)
(-10035 -119474 -4.85477e-25)
(-9661.17 -121750 -2.70935e-25)
(-9260.58 -124070 2.98973e-25)
(-8832.92 -126432 0)
(-8378.78 -128830 0)
(-7897.3 -131262 3.80575e-25)
(-7388.8 -133721 4.09362e-25)
(-6853.36 -136205 0)
(-6291.17 -138708 4.67471e-25)
(-5702.52 -141225 4.96766e-25)
(-5087.81 -143752 0)
(-4447.51 -146284 2.17083e-41)
(-3782.24 -148816 4.54518e-39)
(-3092.68 -151342 -6.14706e-25)
(-2379.64 -153858 -1.28831e-24)
(-1644.06 -156359 -6.73502e-25)
(-886.953 -158838 7.02697e-25)
(-109.468 -161293 7.31697e-25)
(687.147 -163716 0)
(1501.54 -166103 0)
(2332.25 -168450 0)
(3177.72 -170751 8.44882e-25)
(4036.31 -173002 8.72274e-25)
(4906.27 -175198 0)
(5785.78 -177335 0)
(6672.95 -179408 0)
(7565.81 -181414 0)
(8462.35 -183350 0)
(9360.48 -185210 0)
(10258.1 -186994 0)
(11153.1 -188697 0)
(12043.2 -190318 0)
(12926.3 -191854 0)
(13800.2 -193304 0)
(14662.8 -194666 1.16073e-24)
(15511.8 -195939 1.18116e-24)
(16345.1 -197123 0)
(17160.6 -198218 -2.44127e-24)
(17956.3 -199225 -2.47953e-24)
(18730.1 -200144 0)
(19480.1 -200976 0)
(20204.4 -201725 0)
(20901.1 -202391 0)
(21568.4 -202978 0)
(22204.7 -203489 0)
(22808.4 -203929 -2.73915e-24)
(23378 -204301 -2.77813e-24)
(23912 -204611 0)
(24409.1 -204863 0)
(24868.2 -205064 0)
(25288.1 -205220 0)
(25668 -205338 0)
(26007.1 -205423 0)
(26304.8 -205484 0)
(26561 -205525 1.60546e-24)
(26775.7 -205555 2.34128e-40)
(26950 -205578 -1.69365e-24)
(27085.1 -205598 0)
(27184.5 -205618 -1.80581e-24)
(27250.9 -205637 -1.86979e-24)
(27307.1 -205651 0)
(-453.759 -84890.7 1.27057e-24)
(-1361.95 -84846.9 6.91642e-25)
(-2261 -84752.1 -6.36402e-25)
(-3138.31 -84616.4 0)
(-3983.08 -84448.9 0)
(-4787.62 -84260 0)
(-5547.1 -84059.6 0)
(-6259.16 -83858.5 9.04065e-25)
(-6923.34 -83667.6 7.88135e-25)
(-7540.52 -83497.1 0)
(-8112.42 -83356.7 0)
(-8641.23 -83254.5 0)
(-9129.33 -83197.9 1.7923e-25)
(-9579.11 -83193.1 1.36179e-25)
(-9992.83 -83245.5 0)
(-10372.6 -83359.5 6.42786e-26)
(-10720.3 -83539.2 1.41517e-25)
(-11037.7 -83787.8 2.1601e-26)
(-11326.1 -84108.2 2.07015e-26)
(-11587 -84502.7 2.79067e-26)
(-11821.3 -84973.6 1.2209e-25)
(-12030.1 -85522.5 4.99195e-26)
(-12214 -86150.7 5.65156e-26)
(-12373.6 -86859.5 1.83447e-25)
(-12509.4 -87649.6 1.26618e-25)
(-12621.7 -88521.6 1.26117e-25)
(-12710.9 -89476 0)
(-12777.1 -90512.9 0)
(-12820.4 -91632.2 0)
(-12840.8 -92833.6 -1.19421e-25)
(-12838.1 -94116.5 -5.97493e-26)
(-12812.4 -95480.2 7.22359e-26)
(-12763.5 -96923.8 1.43115e-26)
(-12691 -98446 -1.97851e-26)
(-12594.9 -100045 -5.17537e-26)
(-12474.7 -101721 8.61447e-26)
(-12330.2 -103469 1.22911e-25)
(-12160.9 -105290 1.61953e-25)
(-11966.6 -107180 2.02428e-25)
(-11746.9 -109138 1.22421e-25)
(-11501.3 -111159 1.44754e-25)
(-11229.6 -113243 5.03746e-25)
(-10931.3 -115384 7.6352e-25)
(-10606.1 -117581 2.15126e-25)
(-10253.7 -119830 -2.4161e-25)
(-9873.94 -122128 0)
(-9466.62 -124469 8.87461e-25)
(-9031.46 -126851 6.39605e-25)
(-8568.44 -129270 0)
(-8077.53 -131720 3.74208e-25)
(-7558.82 -134199 4.0234e-25)
(-7012.45 -136700 0)
(-6438.65 -139220 1.37745e-24)
(-5837.76 -141754 1.46363e-24)
(-5210.22 -144296 -5.16775e-25)
(-4556.57 -146843 -4.36089e-39)
(-3877.47 -149388 5.74911e-25)
(-3173.67 -151927 0)
(-2446.05 -154454 -1.84101e-41)
(-1695.6 -156964 -9.88981e-39)
(-923.409 -159453 0)
(-130.689 -161914 1.44021e-24)
(681.242 -164343 1.49751e-24)
(1510.96 -166735 0)
(2356.95 -169085 0)
(3217.57 -171388 -8.33145e-25)
(4091.11 -173640 -4.53067e-40)
(4975.77 -175835 2.66311e-24)
(5869.66 -177969 1.82873e-24)
(6770.83 -180039 0)
(7677.25 -182040 -1.93259e-24)
(8586.86 -183968 -3.96606e-24)
(9497.52 -185821 -2.03242e-24)
(10407.1 -187595 0)
(11313.3 -189288 0)
(12214.1 -190897 0)
(13107.2 -192420 2.21899e-24)
(13990.3 -193855 2.26287e-24)
(14861.3 -195202 0)
(15718 -196459 0)
(16558.3 -197626 0)
(17380 -198703 -2.4282e-24)
(18181.1 -199690 -3.70101e-24)
(18959.6 -200590 -1.2529e-24)
(19713.5 -201402 0)
(20440.9 -202129 0)
(21140.1 -202774 0)
(21809.2 -203339 2.65593e-24)
(22446.6 -203828 5.38726e-24)
(23050.8 -204245 1.36599e-24)
(23620.3 -204594 -1.38567e-24)
(24153.7 -204881 4.21828e-24)
(24649.6 -205110 4.28254e-24)
(25107.1 -205288 0)
(25524.9 -205421 0)
(25902.3 -205516 0)
(26238.6 -205579 -3.06164e-24)
(26533.4 -205617 -3.12672e-24)
(26786.3 -205637 -1.59892e-24)
(26997.9 -205646 -3.27706e-24)
(27169 -205649 -1.68271e-24)
(27301.4 -205652 3.46365e-24)
(27398.9 -205656 3.57317e-24)
(27464.1 -205662 0)
(27520.6 -205669 0)
(-423.581 -83352.9 9.64502e-25)
(-1272.66 -83328.5 1.08979e-24)
(-2118.11 -83272.5 0)
(-2950.47 -83192.6 0)
(-3761.02 -83093.8 0)
(-4542.76 -82982.5 -1.90092e-24)
(-5290.5 -82864.7 -2.72229e-24)
(-6000.76 -82748 1.49256e-39)
(-6671.53 -82640.7 7.54957e-25)
(-7302.02 -82551.5 0)
(-7892.32 -82488.6 5.75673e-25)
(-8443.2 -82459.8 4.88902e-25)
(-8955.8 -82472.1 0)
(-9431.56 -82531.6 0)
(-9871.96 -82644 0)
(-10278.5 -82814.1 0)
(-10652.7 -83046.1 2.93336e-25)
(-10995.8 -83343.6 1.4814e-25)
(-11309.4 -83709.9 -5.66299e-26)
(-11594.2 -84147.7 -1.05247e-26)
(-11851.5 -84659.3 1.11297e-26)
(-12082 -85246.9 1.4958e-26)
(-12286.4 -85911.9 -2.29333e-26)
(-12465.5 -86655.9 2.82682e-26)
(-12619.3 -87479.7 6.3089e-26)
(-12748.7 -88384.2 6.74777e-26)
(-12853.6 -89370 0)
(-12934.4 -90437.3 0)
(-12991 -91586.1 0)
(-13023.6 -92816.2 -3.7022e-26)
(-13031.9 -94127.3 -2.06673e-26)
(-13016 -95518.6 1.81577e-27)
(-12975.7 -96989.2 -5.54673e-26)
(-12910.7 -98538 -7.20314e-26)
(-12820.8 -100164 -1.14931e-25)
(-12705.6 -101865 1.07624e-25)
(-12565 -103639 1.40844e-25)
(-12398.4 -105485 1.77241e-25)
(-12205.6 -107400 2.15058e-25)
(-11986.2 -109382 1.27244e-25)
(-11739.8 -111428 1.47973e-25)
(-11466.2 -113535 3.39396e-25)
(-11164.9 -115700 7.64691e-25)
(-10835.7 -117920 4.30675e-25)
(-10478.1 -120192 0)
(-10092.1 -122512 0)
(-9677.44 -124875 5.83065e-25)
(-9234.35 -127279 6.31964e-25)
(-8762.3 -129718 0)
(-8261.49 -132188 0)
(-7732.04 -134686 0)
(-7174.14 -137206 8.47406e-25)
(-6588.07 -139744 1.80647e-24)
(-5974.24 -142294 9.59603e-25)
(-5333.14 -144852 -5.0821e-25)
(-4665.37 -147413 5.36798e-25)
(-3971.66 -149972 1.13104e-24)
(-3252.82 -152523 0)
(-2509.81 -155062 6.23178e-25)
(-1743.67 -157582 6.52023e-25)
(-955.583 -160079 0)
(-146.816 -162548 1.41903e-24)
(681.235 -164983 2.95227e-24)
(1527.07 -167380 1.53287e-24)
(2389.1 -169733 -1.58915e-24)
(3265.62 -172037 -4.1122e-24)
(4154.85 -174289 -1.69999e-24)
(5054.9 -176482 2.6316e-24)
(5963.84 -178614 1.80804e-24)
(6879.63 -180679 0)
(7800.21 -182674 -1.91276e-24)
(8723.43 -184596 -3.92745e-24)
(9647.12 -186440 -2.01369e-24)
(10569.1 -188205 -2.06263e-24)
(11487.1 -189886 -2.11051e-24)
(12398.9 -191483 0)
(13302.2 -192992 2.20304e-24)
(14194.9 -194412 2.24769e-24)
(15074.6 -195743 0)
(15939.3 -196983 0)
(16786.7 -198133 0)
(17614.7 -199191 0)
(18421.4 -200159 -1.22804e-24)
(19204.6 -201038 -1.24764e-24)
(19962.4 -201829 2.53389e-24)
(20693 -202535 2.57207e-24)
(21394.7 -203158 0)
(22065.6 -203701 2.64791e-24)
(22704.1 -204167 5.37212e-24)
(23308.8 -204561 4.08713e-24)
(23878.1 -204887 1.38218e-24)
(24410.7 -205151 4.20791e-24)
(24905.5 -205357 4.272e-24)
(25361.2 -205511 0)
(25777 -205621 0)
(26152 -205693 0)
(26485.5 -205733 -3.05262e-24)
(26777.2 -205749 -3.11498e-24)
(27027 -205747 -1.59173e-24)
(27235.5 -205736 -1.62901e-24)
(27403.6 -205719 -3.34171e-24)
(27533.6 -205704 -3.43361e-24)