/*--------------------------------*- C++ -*----------------------------------*\
| =========                 |                                                 |
| \\      /  F ield         | OpenFOAM: The Open Source CFD Toolbox           |
|  \\    /   O peration     | Version:  2.4.0                                 |
|   \\  /    A nd           | Web:      www.OpenFOAM.org                      |
|    \\/     M anipulation  |                                                 |
\*---------------------------------------------------------------------------*/
FoamFile
{
    version     2.0;
    format      ascii;
    class       volScalarField;
    location    "0";
    object      H;
}
// * * * * * * * * * * * * * * * * * * * * * * * * * * * * * * * * * * * * * //

dimensions      [0 2 -2 0 0 0 0];

internalField   uniform 0;

boundaryField
{
    Inlet
    {
        type		 fixedValue;
        value            uniform 0;
    }

    BotOutlet
    {
		type		inletOutlet;
		inletValue      uniform 0;
		value		uniform 0;
    }

    FreeStream
    {
        type		 fixedValue;
        value            uniform 0;
    }

    FrontNBack
    {
        type            empty;
    }

    LeftSide
    {
        type		 fixedValue;
	value		 uniform -5*4200;

    }

}


// ************************************************************************* //
