/*--------------------------------*- C++ -*----------------------------------*\
| =========                 |                                                 |
| \\      /  F ield         | OpenFOAM: The Open Source CFD Toolbox           |
|  \\    /   O peration     | Version:  2.0.x                                 |
|   \\  /    A nd           | Web:      www.OpenFOAM.org                      |
|    \\/     M anipulation  |                                                 |
\*---------------------------------------------------------------------------*/
FoamFile
{
    version     2.0;
    format      ascii;
    class       volScalarField;
    location    "0";
    object      p_rgh;
}
// * * * * * * * * * * * * * * * * * * * * * * * * * * * * * * * * * * * * * //

dimensions      [1 -1 -2 0 0 0 0];

internalField   uniform 1e5;

boundaryField
{
    Inlet
    {
        type            totalPressure;
        rho		rho;
	psi		none;
	gamma		1;
	p0		uniform 1e5;
	value		uniform 1e5;

    }    

    BotOutlet
    {
        type            zeroGradient;
    }  

    FreeStream
    {
        type            totalPressure;
        rho		rho;
	psi		none;
	gamma		1;
	p0		uniform 1e5;
	value		uniform 1e5;
    }

    FrontNBack
    {
        type            empty;
    }

    LeftSide
    {
        type            zeroGradient;
    }


}


// ************************************************************************* //
