/*--------------------------------*- C++ -*----------------------------------*\
| =========                 |                                                 |
| \\      /  F ield         | OpenFOAM: The Open Source CFD Toolbox           |
|  \\    /   O peration     | Version:  2.4.x                                 |
|   \\  /    A nd           | Web:      www.OpenFOAM.org                      |
|    \\/     M anipulation  |                                                 |
\*---------------------------------------------------------------------------*/
FoamFile
{
    version     2.0;
    format      ascii;
    class       volScalarField;
    location    "0.001";
    object      H;
}
// * * * * * * * * * * * * * * * * * * * * * * * * * * * * * * * * * * * * * //

dimensions      [0 2 -2 0 0 0 0];

internalField   nonuniform List<scalar> 
256
(
-69119.8
-39365.9
-9674.16
20346
20346.4
20346.7
20347.1
20347.7
20348.4
20349.3
20350.3
20351.4
20352.7
20354.2
20355.8
20357.6
20359.5
20361.6
20363.9
20366.3
20368.9
20371.6
20374.6
20377.6
20380.9
20384.3
20387.9
20391.7
20395.6
20399.7
20404
20408.4
20413
20417.7
20422.6
20427.7
20432.9
20438.3
20443.8
20449.5
20455.3
20461.3
20467.4
20473.6
20480
20486.5
20493.1
20499.9
20506.7
20513.7
20520.7
20527.9
20535.1
20542.5
20549.9
20557.4
20565
20572.6
20580.3
20588.1
20595.9
20603.7
20611.6
20619.5
20627.5
20635.4
20643.4
20651.4
20659.3
20667.3
20675.2
20683.2
20691.1
20699
20706.8
20714.6
20722.3
20730
20737.7
20745.2
20752.7
20760.1
20767.5
20774.7
20781.9
20789
20795.9
20802.8
20809.6
20816.2
20822.8
20829.2
20835.5
20841.7
20847.7
20853.6
20859.4
20865.1
20870.6
20876
20881.3
20886.4
20891.4
20896.2
20900.9
20905.5
20909.9
20914.2
20918.4
20922.4
20926.3
20930
20933.7
20937.1
20940.5
20943.7
20946.8
20949.8
20952.6
20955.4
20958
20960.5
20962.9
20965.1
20967.3
20969.4
20971.3
20973.2
20975
20976.6
20978.2
20979.7
20981.1
20982.5
20983.7
20984.9
20986.1
20987.1
20988.1
20989
20989.9
20990.7
20991.4
20992.1
20992.8
20993.4
20994
20994.5
20995
20995.4
20995.8
20996.2
20996.6
20996.9
20997.2
20997.4
20997.7
20997.9
20998.1
20998.3
20998.5
20998.7
20998.8
20998.9
20999
20999.1
20999.2
20999.3
20999.4
20999.5
20999.5
20999.6
20999.6
20999.7
20999.7
20999.8
20999.8
20999.8
20999.8
20999.9
20999.9
20999.9
20999.9
20999.9
20999.9
20999.9
21000
21000
21000
21000
21000
21000
21000
21000
21000
21000
21000
21000
21000
21000
21000
21000
21000
21000
21000
21000
21000
21000
21000
21000
21000
21000
21000
21000
21000
21000
21000
21000
21000
21000
21000
21000
21000
21000
21000
21000
21000
21000
21000
21000
21000
21000
21000
21000
21000
21000
21000
21000
21000
21000
21000
21000
21000
21000
21000
21000
21000
21000
21000
21000
21000
21000
21000
21000
21000
21000
)
;

boundaryField
{
    BotWall
    {
        type            zeroGradient;
    }
    FreeStream
    {
        type            zeroGradient;
    }
    FrontNBack
    {
        type            empty;
    }
    LeftSide
    {
        type            symmetryPlane;
    }
    RightSide
    {
        type            symmetryPlane;
    }
}


// ************************************************************************* //
