/*--------------------------------*- C++ -*----------------------------------*\
  =========                 |
  \\      /  F ield         | OpenFOAM: The Open Source CFD Toolbox
   \\    /   O peration     | Website:  https://openfoam.org
    \\  /    A nd           | Version:  6
     \\/     M anipulation  |
\*---------------------------------------------------------------------------*/
FoamFile
{
    version     2.0;
    format      ascii;
    class       volScalarField;
    location    "0";
    object      alpha1;
}
// * * * * * * * * * * * * * * * * * * * * * * * * * * * * * * * * * * * * * //

dimensions      [0 0 0 0 0 0 0];

internalField   nonuniform List<scalar> 
18060
(
-1.41722e+06
-1.2536e+06
-1.17695e+06
-919512
-828282
-592896
-516381
-342779
-290779
-186680
-156344
-106404
-88288.2
-67675.1
-57844.5
-49417.7
-44134.2
-40021.7
-37007.4
-34651.9
-32802.4
-31318.4
-30114.9
-29130.2
-28319.3
-27648.3
-27091.3
-26628
-26242.2
-25921
-25653.8
-25431.8
-25247.8
-25095.6
-24970.2
-24867.3
-24783.1
-24714.6
-24659.2
-24614.5
-24578.7
-24550.2
-24527.6
-24509.8
-24495.8
-24485
-24476.6
-24470.1
-24465.1
-24461.3
-24458.4
-24456.3
-24454.6
-24453.4
-24452.4
-24451.7
-24451.2
-24450.8
-24450.5
-24450.3
-24450.1
-24450
-24449.9
-24449.8
-24449.8
-24449.7
-24449.7
-24449.6
-24449.6
-24449.6
-24449.6
-24449.6
-24449.5
-24449.5
-24449.5
-24449.5
-24449.5
-24449.5
-24449.5
-24449.5
-24449.5
-24449.5
-24449.5
-24449.5
-24449.5
-24449.5
-24449.5
-24449.5
-24449.5
-24449.5
-24449.5
-24449.5
-24449.5
-24449.5
-24449.5
-24449.5
-24449.5
-24449.5
-24449.5
-24449.5
-24449.5
-24449.5
-24449.5
-24449.5
-24449.5
-260127
-89904.3
-88277.9
-59742.5
-53313.9
-38883.4
-37323.8
-30781
-30064.3
-28335.8
-27356.4
-26386.1
-25966.2
-25675.4
-25441.7
-25254.9
-25105.9
-24986.8
-24891.1
-24813.7
-24750.6
-24698.6
-24655
-24618.8
-24588.5
-24563.3
-24542.2
-24524.7
-24510.1
-24498.1
-24488.2
-24480.1
-24473.6
-24468.3
-24464
-24460.6
-24458
-24455.9
-24454.3
-24453
-24452.1
-24451.4
-24450.8
-24450.4
-24450.2
-24449.9
-24449.8
-24449.7
-24449.6
-24449.6
-24449.5
-24449.5
-24449.5
-24449.5
-24449.5
-24449.5
-24449.5
-24449.5
-24449.5
-24449.5
-24449.5
-24449.5
-24449.5
-24449.5
-24449.5
-24449.5
-24449.5
-24449.5
-24449.5
-24449.5
-24449.5
-24449.5
-24449.5
-24449.5
-24449.5
-24449.5
-24449.5
-24449.5
-24449.5
-24449.5
-24449.5
-24449.5
-24449.5
-24449.5
-24449.5
-24449.5
-24449.5
-24449.5
-24449.5
-24449.5
-24449.5
-24449.5
-24449.5
-24449.5
-24449.5
-24449.5
-24449.5
-24449.5
-24449.5
-24449.5
-24449.5
-24449.5
-24449.5
-24449.5
-24449.5
-32428.1
-32737.2
-33212.1
-32745.1
-31375.4
-30352.1
-29454.6
-28660.1
-27960.2
-27349.7
-26825.8
-26384
-26017.7
-25718.7
-25477.3
-25283.8
-25129.3
-25005.6
-24906.2
-24825.9
-24760.5
-24706.7
-24661.7
-24624.1
-24592.8
-24566.7
-24544.9
-24526.8
-24511.8
-24499.4
-24489.2
-24480.9
-24474.1
-24468.7
-24464.3
-24460.8
-24458.1
-24456
-24454.3
-24453
-24452.1
-24451.4
-24450.8
-24450.4
-24450.2
-24449.9
-24449.8
-24449.7
-24449.6
-24449.6
-24449.5
-24449.5
-24449.5
-24449.5
-24449.5
-24449.5
-24449.5
-24449.5
-24449.5
-24449.5
-24449.5
-24449.5
-24449.5
-24449.5
-24449.5
-24449.5
-24449.5
-24449.5
-24449.5
-24449.5
-24449.5
-24449.5
-24449.5
-24449.5
-24449.5
-24449.5
-24449.5
-24449.5
-24449.5
-24449.5
-24449.5
-24449.5
-24449.5
-24449.5
-24449.5
-24449.5
-24449.5
-24449.5
-24449.5
-24449.5
-24449.5
-24449.5
-24449.5
-24449.5
-24449.5
-24449.5
-24449.5
-24449.5
-24449.5
-24449.5
-24449.5
-24449.5
-24449.5
-24449.5
-24449.5
-32842.4
-30448
-30898.1
-33093.1
-31611
-30543.3
-29612.8
-28794.4
-28075.3
-27448.8
-26910.6
-26455.6
-26077.4
-25767.7
-25517
-25315.8
-25154.8
-25026
-24922.5
-24838.9
-24771
-24715.4
-24668.6
-24629.8
-24597.3
-24570.3
-24547.8
-24529
-24513.5
-24500.7
-24490.2
-24481.6
-24474.7
-24469.1
-24464.6
-24461
-24458.2
-24456.1
-24454.4
-24453.1
-24452.1
-24451.4
-24450.8
-24450.4
-24450.2
-24449.9
-24449.8
-24449.7
-24449.6
-24449.6
-24449.5
-24449.5
-24449.5
-24449.5
-24449.5
-24449.5
-24449.5
-24449.5
-24449.5
-24449.5
-24449.5
-24449.5
-24449.5
-24449.5
-24449.5
-24449.5
-24449.5
-24449.5
-24449.5
-24449.5
-24449.5
-24449.5
-24449.5
-24449.5
-24449.5
-24449.5
-24449.5
-24449.5
-24449.5
-24449.5
-24449.5
-24449.5
-24449.5
-24449.5
-24449.5
-24449.5
-24449.5
-24449.5
-24449.5
-24449.5
-24449.5
-24449.5
-24449.5
-24449.5
-24449.5
-24449.5
-24449.5
-24449.5
-24449.5
-24449.5
-24449.5
-24449.5
-24449.5
-24449.5
-24449.5
-39024.7
-39002.2
-37120.4
-33145.1
-31850.2
-30748.9
-29791.9
-28951.2
-28211.9
-27566.6
-27010.7
-26539.4
-26146.4
-25823.6
-25561.9
-25351.5
-25183.1
-25048.4
-24940.2
-24852.9
-24782.2
-24724.6
-24676
-24635.7
-24602.1
-24574.1
-24550.7
-24531.4
-24515.3
-24502.1
-24491.2
-24482.4
-24475.2
-24469.5
-24464.9
-24461.2
-24458.4
-24456.2
-24454.4
-24453.1
-24452.1
-24451.4
-24450.8
-24450.4
-24450.1
-24449.9
-24449.8
-24449.7
-24449.6
-24449.6
-24449.5
-24449.5
-24449.5
-24449.5
-24449.5
-24449.5
-24449.5
-24449.5
-24449.5
-24449.5
-24449.5
-24449.5
-24449.5
-24449.5
-24449.5
-24449.5
-24449.5
-24449.5
-24449.5
-24449.5
-24449.5
-24449.5
-24449.5
-24449.5
-24449.5
-24449.5
-24449.5
-24449.5
-24449.5
-24449.5
-24449.5
-24449.5
-24449.5
-24449.5
-24449.5
-24449.5
-24449.5
-24449.5
-24449.5
-24449.5
-24449.5
-24449.5
-24449.5
-24449.5
-24449.5
-24449.5
-24449.5
-24449.5
-24449.5
-24449.5
-24449.5
-24449.5
-24449.5
-24449.5
-24449.5
-39055.7
-36942.4
-35022.5
-33422.4
-32094.5
-30966.1
-29986
-29124
-28364.2
-27698.6
-27123.1
-26633.2
-26223.4
-25885.8
-25611.6
-25390.8
-25214.1
-25072.7
-24959.3
-24867.9
-24794.2
-24734.3
-24683.8
-24641.9
-24607.1
-24578
-24553.8
-24533.8
-24517.2
-24503.5
-24492.3
-24483.2
-24475.8
-24469.9
-24465.2
-24461.5
-24458.5
-24456.2
-24454.5
-24453.2
-24452.2
-24451.4
-24450.8
-24450.4
-24450.1
-24449.9
-24449.8
-24449.7
-24449.6
-24449.6
-24449.5
-24449.5
-24449.5
-24449.5
-24449.5
-24449.5
-24449.5
-24449.5
-24449.5
-24449.5
-24449.5
-24449.5
-24449.5
-24449.5
-24449.5
-24449.5
-24449.5
-24449.5
-24449.5
-24449.5
-24449.5
-24449.5
-24449.5
-24449.5
-24449.5
-24449.5
-24449.5
-24449.5
-24449.5
-24449.5
-24449.5
-24449.5
-24449.5
-24449.5
-24449.5
-24449.5
-24449.5
-24449.5
-24449.5
-24449.5
-24449.5
-24449.5
-24449.5
-24449.5
-24449.5
-24449.5
-24449.5
-24449.5
-24449.5
-24449.5
-24449.5
-24449.5
-24449.5
-24449.5
-24449.5
-39142.2
-37233.6
-35304.7
-33680.4
-32329.2
-31181.1
-30183.4
-29303.8
-28525.1
-27839.8
-27244.2
-26734.9
-26307
-25953.5
-25665.5
-25433.4
-25247.6
-25099
-24979.9
-24884.1
-24806.8
-24744.6
-24692
-24648.5
-24612.3
-24582.2
-24557.1
-24536.3
-24519.2
-24505
-24493.5
-24484.1
-24476.5
-24470.4
-24465.5
-24461.7
-24458.7
-24456.3
-24454.6
-24453.2
-24452.2
-24451.4
-24450.9
-24450.4
-24450.1
-24449.9
-24449.8
-24449.7
-24449.6
-24449.6
-24449.5
-24449.5
-24449.5
-24449.5
-24449.5
-24449.5
-24449.5
-24449.5
-24449.5
-24449.5
-24449.5
-24449.5
-24449.5
-24449.5
-24449.5
-24449.5
-24449.5
-24449.5
-24449.5
-24449.5
-24449.5
-24449.5
-24449.5
-24449.5
-24449.5
-24449.5
-24449.5
-24449.5
-24449.5
-24449.5
-24449.5
-24449.5
-24449.5
-24449.5
-24449.5
-24449.5
-24449.5
-24449.5
-24449.5
-24449.5
-24449.5
-24449.5
-24449.5
-24449.5
-24449.5
-24449.5
-24449.5
-24449.5
-24449.5
-24449.5
-24449.5
-24449.5
-24449.5
-24449.5
-24449.5
-39363.6
-37486.1
-35553.5
-33914.1
-32547.8
-31386.9
-30377
-29483.9
-28689.4
-27986
-27371
-26842.2
-26395.8
-26025.6
-25723.1
-25479
-25283.3
-25127
-25001.8
-24901.2
-24820.2
-24755.4
-24700.7
-24655.4
-24617.8
-24586.5
-24560.5
-24539
-24521.2
-24506.6
-24494.6
-24484.9
-24477.1
-24470.8
-24465.8
-24461.9
-24458.8
-24456.4
-24454.6
-24453.2
-24452.2
-24451.4
-24450.9
-24450.4
-24450.1
-24449.9
-24449.8
-24449.7
-24449.6
-24449.6
-24449.5
-24449.5
-24449.5
-24449.5
-24449.5
-24449.5
-24449.5
-24449.5
-24449.5
-24449.5
-24449.5
-24449.5
-24449.5
-24449.5
-24449.5
-24449.5
-24449.5
-24449.5
-24449.5
-24449.5
-24449.5
-24449.5
-24449.5
-24449.5
-24449.5
-24449.5
-24449.5
-24449.5
-24449.5
-24449.5
-24449.5
-24449.5
-24449.5
-24449.5
-24449.5
-24449.5
-24449.5
-24449.5
-24449.5
-24449.5
-24449.5
-24449.5
-24449.5
-24449.5
-24449.5
-24449.5
-24449.5
-24449.5
-24449.5
-24449.5
-24449.5
-24449.5
-24449.5
-24449.5
-24449.5
-39577.7
-37720.8
-35782.2
-34129.3
-32751.3
-31581.6
-30563.6
-29660.7
-28853.4
-28134.1
-27501.1
-26953.4
-26488.6
-26101.3
-25783.9
-25527.1
-25321.1
-25156.6
-25025
-24919.3
-24834.2
-24766.8
-24709.7
-24662.6
-24623.5
-24591
-24564.1
-24541.7
-24523.3
-24508.2
-24495.9
-24485.8
-24477.8
-24471.3
-24466.2
-24462.1
-24459
-24456.6
-24454.7
-24453.3
-24452.2
-24451.4
-24450.9
-24450.4
-24450.1
-24449.9
-24449.8
-24449.7
-24449.6
-24449.6
-24449.5
-24449.5
-24449.5
-24449.5
-24449.5
-24449.5
-24449.5
-24449.5
-24449.5
-24449.5
-24449.5
-24449.5
-24449.5
-24449.5
-24449.5
-24449.5
-24449.5
-24449.5
-24449.5
-24449.5
-24449.5
-24449.5
-24449.5
-24449.5
-24449.5
-24449.5
-24449.5
-24449.5
-24449.5
-24449.5
-24449.5
-24449.5
-24449.5
-24449.5
-24449.5
-24449.5
-24449.5
-24449.5
-24449.5
-24449.5
-24449.5
-24449.5
-24449.5
-24449.5
-24449.5
-24449.5
-24449.5
-24449.5
-24449.5
-24449.5
-24449.5
-24449.5
-24449.5
-24449.5
-24449.5
-39788.1
-37943.2
-35995.8
-34329.4
-32941.3
-31765.2
-30742
-29832.2
-29014.9
-28282
-27632.6
-27067.1
-26584.2
-26179.9
-25847.2
-25577.4
-25360.7
-25187.6
-25049.3
-24938.3
-24848.5
-24778.7
-24719.1
-24670.1
-24629.4
-24595.7
-24567.7
-24544.6
-24525.5
-24509.9
-24497.1
-24486.8
-24478.5
-24471.8
-24466.5
-24462.4
-24459.2
-24456.7
-24454.8
-24453.3
-24452.2
-24451.5
-24450.9
-24450.4
-24450.1
-24449.9
-24449.8
-24449.7
-24449.6
-24449.6
-24449.5
-24449.5
-24449.5
-24449.5
-24449.5
-24449.5
-24449.5
-24449.5
-24449.5
-24449.5
-24449.5
-24449.5
-24449.5
-24449.5
-24449.5
-24449.5
-24449.5
-24449.5
-24449.5
-24449.5
-24449.5
-24449.5
-24449.5
-24449.5
-24449.5
-24449.5
-24449.5
-24449.5
-24449.5
-24449.5
-24449.5
-24449.5
-24449.5
-24449.5
-24449.5
-24449.5
-24449.5
-24449.5
-24449.5
-24449.5
-24449.5
-24449.5
-24449.5
-24449.5
-24449.5
-24449.5
-24449.5
-24449.5
-24449.5
-24449.5
-24449.5
-24449.5
-24449.5
-24449.5
-24449.5
-39996.9
-38157.3
-36198
-34517.3
-33119.4
-31938.2
-30911.8
-29997.5
-29172.5
-28428.2
-27764.2
-27182
-26681.8
-26260.7
-25912.7
-25629.6
-25401.8
-25219.9
-25074.6
-24958.2
-24862.9
-24791
-24728.9
-24677.8
-24635.6
-24600.6
-24571.6
-24547.6
-24527.8
-24511.7
-24498.5
-24487.8
-24479.2
-24472.3
-24466.9
-24462.6
-24459.3
-24456.8
-24454.8
-24453.4
-24452.3
-24451.5
-24450.9
-24450.5
-24450.1
-24449.9
-24449.8
-24449.7
-24449.6
-24449.6
-24449.5
-24449.5
-24449.5
-24449.5
-24449.5
-24449.5
-24449.5
-24449.5
-24449.5
-24449.5
-24449.5
-24449.5
-24449.5
-24449.5
-24449.5
-24449.5
-24449.5
-24449.5
-24449.5
-24449.5
-24449.5
-24449.5
-24449.5
-24449.5
-24449.5
-24449.5
-24449.5
-24449.5
-24449.5
-24449.5
-24449.5
-24449.5
-24449.5
-24449.5
-24449.5
-24449.5
-24449.5
-24449.5
-24449.5
-24449.5
-24449.5
-24449.5
-24449.5
-24449.5
-24449.5
-24449.5
-24449.5
-24449.5
-24449.5
-24449.5
-24449.5
-24449.5
-24449.5
-24449.5
-24449.5
-40206.1
-38365.7
-36391.7
-34695.3
-33287.4
-32101.7
-31073.2
-30156.2
-29325.6
-28571.9
-27894.9
-27297.3
-26780.6
-26343.1
-25979.9
-25683.4
-25444.3
-25253.2
-25100.8
-24979.2
-24876.9
-24803.7
-24739
-24685.9
-24642
-24605.6
-24575.5
-24550.7
-24530.2
-24513.5
-24499.8
-24488.8
-24479.9
-24472.8
-24467.3
-24462.9
-24459.5
-24456.9
-24454.9
-24453.4
-24452.3
-24451.5
-24450.9
-24450.5
-24450.1
-24449.9
-24449.8
-24449.7
-24449.6
-24449.6
-24449.5
-24449.5
-24449.5
-24449.5
-24449.5
-24449.5
-24449.5
-24449.5
-24449.5
-24449.5
-24449.5
-24449.5
-24449.5
-24449.5
-24449.5
-24449.5
-24449.5
-24449.5
-24449.5
-24449.5
-24449.5
-24449.5
-24449.5
-24449.5
-24449.5
-24449.5
-24449.5
-24449.5
-24449.5
-24449.5
-24449.5
-24449.5
-24449.5
-24449.5
-24449.5
-24449.5
-24449.5
-24449.5
-24449.5
-24449.5
-24449.5
-24449.5
-24449.5
-24449.5
-24449.5
-24449.5
-24449.5
-24449.5
-24449.5
-24449.5
-24449.5
-24449.5
-24449.5
-24449.5
-24449.5
-40416.6
-38570.5
-36578.8
-34865.3
-33446.8
-32256.6
-31226.8
-30308.5
-29473.8
-28712.4
-28024.1
-27412.4
-26880.1
-26426.7
-26048.5
-25738.5
-25488
-25287.5
-25127.7
-25000.1
-24897.9
-24816.8
-24749.4
-24694.2
-24648.5
-24610.8
-24579.6
-24553.9
-24532.7
-24515.3
-24501.2
-24489.8
-24480.7
-24473.4
-24467.6
-24463.1
-24459.7
-24457
-24455
-24453.5
-24452.3
-24451.5
-24450.9
-24450.5
-24450.1
-24449.9
-24449.8
-24449.7
-24449.6
-24449.6
-24449.5
-24449.5
-24449.5
-24449.5
-24449.5
-24449.5
-24449.5
-24449.5
-24449.5
-24449.5
-24449.5
-24449.5
-24449.5
-24449.5
-24449.5
-24449.5
-24449.5
-24449.5
-24449.5
-24449.5
-24449.5
-24449.5
-24449.5
-24449.5
-24449.5
-24449.5
-24449.5
-24449.5
-24449.5
-24449.5
-24449.5
-24449.5
-24449.5
-24449.5
-24449.5
-24449.5
-24449.5
-24449.5
-24449.5
-24449.5
-24449.5
-24449.5
-24449.5
-24449.5
-24449.5
-24449.5
-24449.5
-24449.5
-24449.5
-24449.5
-24449.5
-24449.5
-24449.5
-24449.5
-24449.5
-40629.3
-38773
-36761.1
-35028.8
-33598.7
-32403.9
-31373.3
-30454.5
-29617.1
-28849.5
-28151.4
-27526.9
-26979.9
-26511.2
-26118.2
-25794.9
-25532.8
-25322.7
-25155.3
-25021.7
-24913.6
-24830.3
-24760.1
-24702.6
-24655.3
-24616.2
-24583.8
-24557.1
-24535.2
-24517.2
-24502.6
-24490.9
-24481.4
-24473.9
-24468
-24463.4
-24459.8
-24457.1
-24455
-24453.5
-24452.3
-24451.5
-24450.9
-24450.5
-24450.1
-24449.9
-24449.8
-24449.7
-24449.6
-24449.6
-24449.5
-24449.5
-24449.5
-24449.5
-24449.5
-24449.5
-24449.5
-24449.5
-24449.5
-24449.5
-24449.5
-24449.5
-24449.5
-24449.5
-24449.5
-24449.5
-24449.5
-24449.5
-24449.5
-24449.5
-24449.5
-24449.5
-24449.5
-24449.5
-24449.5
-24449.5
-24449.5
-24449.5
-24449.5
-24449.5
-24449.5
-24449.5
-24449.5
-24449.5
-24449.5
-24449.5
-24449.5
-24449.5
-24449.5
-24449.5
-24449.5
-24449.5
-24449.5
-24449.5
-24449.5
-24449.5
-24449.5
-24449.5
-24449.5
-24449.5
-24449.5
-24449.5
-24449.5
-24449.5
-24449.5
-40844.6
-38974.4
-36939.7
-35187
-33744.5
-32544.6
-31513.4
-30594.7
-29755.7
-28983.2
-28276.5
-27640.4
-27079.6
-26596.3
-26188.9
-25852.2
-25578.5
-25358.7
-25183.5
-25044.2
-24926.6
-24844
-24771
-24711.3
-24662.2
-24621.6
-24588.1
-24560.5
-24537.7
-24519.2
-24504.1
-24491.9
-24482.2
-24474.5
-24468.4
-24463.7
-24460
-24457.2
-24455.1
-24453.5
-24452.4
-24451.5
-24450.9
-24450.5
-24450.1
-24449.9
-24449.8
-24449.7
-24449.6
-24449.6
-24449.5
-24449.5
-24449.5
-24449.5
-24449.5
-24449.5
-24449.5
-24449.5
-24449.5
-24449.5
-24449.5
-24449.5
-24449.5
-24449.5
-24449.5
-24449.5
-24449.5
-24449.5
-24449.5
-24449.5
-24449.5
-24449.5
-24449.5
-24449.5
-24449.5
-24449.5
-24449.5
-24449.5
-24449.5
-24449.5
-24449.5
-24449.5
-24449.5
-24449.5
-24449.5
-24449.5
-24449.5
-24449.5
-24449.5
-24449.5
-24449.5
-24449.5
-24449.5
-24449.5
-24449.5
-24449.5
-24449.5
-24449.5
-24449.5
-24449.5
-24449.5
-24449.5
-24449.5
-24449.5
-24449.5
-41063.1
-39175.4
-37115.6
-35341
-33884.9
-32679.6
-31647.6
-30729.5
-29889.7
-29113.5
-28399.5
-27752.9
-27179.2
-26681.9
-26260.3
-25910.4
-25625.1
-25395.5
-25212.4
-25066.4
-24948.9
-24858.1
-24782.2
-24720.2
-24669.3
-24627.2
-24592.5
-24563.9
-24540.4
-24521.2
-24505.6
-24493.1
-24483
-24475.1
-24468.8
-24463.9
-24460.2
-24457.3
-24455.2
-24453.6
-24452.4
-24451.5
-24450.9
-24450.5
-24450.1
-24449.9
-24449.8
-24449.7
-24449.6
-24449.6
-24449.5
-24449.5
-24449.5
-24449.5
-24449.5
-24449.5
-24449.5
-24449.5
-24449.5
-24449.5
-24449.5
-24449.5
-24449.5
-24449.5
-24449.5
-24449.5
-24449.5
-24449.5
-24449.5
-24449.5
-24449.5
-24449.5
-24449.5
-24449.5
-24449.5
-24449.5
-24449.5
-24449.5
-24449.5
-24449.5
-24449.5
-24449.5
-24449.5
-24449.5
-24449.5
-24449.5
-24449.5
-24449.5
-24449.5
-24449.5
-24449.5
-24449.5
-24449.5
-24449.5
-24449.5
-24449.5
-24449.5
-24449.5
-24449.5
-24449.5
-24449.5
-24449.5
-24449.5
-24449.5
-24449.5
-41285.1
-39376.8
-37289.7
-35491.6
-34021
-32809.5
-31776.6
-30859.4
-30019.5
-29240.4
-28520.2
-27864.1
-27278.5
-26767.8
-26332.5
-25969.5
-25672.5
-25433.1
-25241.8
-25089.6
-24968
-24872.5
-24793.6
-24729.3
-24676.5
-24632.9
-24597
-24567.4
-24543.1
-24523.2
-24507.1
-24494.2
-24483.8
-24475.6
-24469.2
-24464.2
-24460.4
-24457.5
-24455.3
-24453.6
-24452.4
-24451.5
-24450.9
-24450.5
-24450.1
-24449.9
-24449.8
-24449.7
-24449.6
-24449.6
-24449.5
-24449.5
-24449.5
-24449.5
-24449.5
-24449.5
-24449.5
-24449.5
-24449.5
-24449.5
-24449.5
-24449.5
-24449.5
-24449.5
-24449.5
-24449.5
-24449.5
-24449.5
-24449.5
-24449.5
-24449.5
-24449.5
-24449.5
-24449.5
-24449.5
-24449.5
-24449.5
-24449.5
-24449.5
-24449.5
-24449.5
-24449.5
-24449.5
-24449.5
-24449.5
-24449.5
-24449.5
-24449.5
-24449.5
-24449.5
-24449.5
-24449.5
-24449.5
-24449.5
-24449.5
-24449.5
-24449.5
-24449.5
-24449.5
-24449.5
-24449.5
-24449.5
-24449.5
-24449.5
-24449.5
-41510.8
-39579
-37462.7
-35639.6
-34153.5
-32935.2
-31901.1
-30984.9
-30145.4
-29364.2
-28638.8
-27974.2
-27377.5
-26853.9
-26405.2
-26029.4
-25720.7
-25471.3
-25271.8
-25113.1
-24982
-24887.1
-24805.2
-24738.5
-24683.8
-24638.7
-24601.5
-24570.9
-24545.8
-24525.3
-24508.7
-24495.3
-24484.7
-24476.2
-24469.6
-24464.5
-24460.6
-24457.6
-24455.3
-24453.7
-24452.4
-24451.5
-24450.9
-24450.5
-24450.1
-24449.9
-24449.8
-24449.7
-24449.6
-24449.6
-24449.5
-24449.5
-24449.5
-24449.5
-24449.5
-24449.5
-24449.5
-24449.5
-24449.5
-24449.5
-24449.5
-24449.5
-24449.5
-24449.5
-24449.5
-24449.5
-24449.5
-24449.5
-24449.5
-24449.5
-24449.5
-24449.5
-24449.5
-24449.5
-24449.5
-24449.5
-24449.5
-24449.5
-24449.5
-24449.5
-24449.5
-24449.5
-24449.5
-24449.5
-24449.5
-24449.5
-24449.5
-24449.5
-24449.5
-24449.5
-24449.5
-24449.5
-24449.5
-24449.5
-24449.5
-24449.5
-24449.5
-24449.5
-24449.5
-24449.5
-24449.5
-24449.5
-24449.5
-24449.5
-24449.5
-41740.4
-39782.6
-37635.1
-35785.7
-34283
-33057.2
-32021.6
-31106.4
-30267.6
-29485.2
-28755.4
-28083.1
-27476
-26940.2
-26478.5
-26090
-25769.7
-25510.2
-25302.5
-25137.3
-25000.1
-24902
-24817
-24747.9
-24691.2
-24644.6
-24606.2
-24574.5
-24548.6
-24527.4
-24510.2
-24496.5
-24485.5
-24476.8
-24470
-24464.8
-24460.7
-24457.7
-24455.4
-24453.7
-24452.5
-24451.6
-24450.9
-24450.5
-24450.1
-24449.9
-24449.8
-24449.7
-24449.6
-24449.6
-24449.5
-24449.5
-24449.5
-24449.5
-24449.5
-24449.5
-24449.5
-24449.5
-24449.5
-24449.5
-24449.5
-24449.5
-24449.5
-24449.5
-24449.5
-24449.5
-24449.5
-24449.5
-24449.5
-24449.5
-24449.5
-24449.5
-24449.5
-24449.5
-24449.5
-24449.5
-24449.5
-24449.5
-24449.5
-24449.5
-24449.5
-24449.5
-24449.5
-24449.5
-24449.5
-24449.5
-24449.5
-24449.5
-24449.5
-24449.5
-24449.5
-24449.5
-24449.5
-24449.5
-24449.5
-24449.5
-24449.5
-24449.5
-24449.5
-24449.5
-24449.5
-24449.5
-24449.5
-24449.5
-24449.5
-41974.3
-39988.1
-37807.6
-35930.4
-34410.1
-33176.1
-32138.6
-31224.3
-30386.6
-29603.4
-28870
-28191
-27574.2
-27026.7
-26552.5
-26151.4
-25819.5
-25549.9
-25333.7
-25161.6
-25025.8
-24917.1
-24828.9
-24757.4
-24698.8
-24650.6
-24610.8
-24578.1
-24551.3
-24529.5
-24511.8
-24497.6
-24486.3
-24477.4
-24470.4
-24465.1
-24460.9
-24457.8
-24455.5
-24453.7
-24452.5
-24451.6
-24450.9
-24450.5
-24450.1
-24449.9
-24449.8
-24449.7
-24449.6
-24449.6
-24449.5
-24449.5
-24449.5
-24449.5
-24449.5
-24449.5
-24449.5
-24449.5
-24449.5
-24449.5
-24449.5
-24449.5
-24449.5
-24449.5
-24449.5
-24449.5
-24449.5
-24449.5
-24449.5
-24449.5
-24449.5
-24449.5
-24449.5
-24449.5
-24449.5
-24449.5
-24449.5
-24449.5
-24449.5
-24449.5
-24449.5
-24449.5
-24449.5
-24449.5
-24449.5
-24449.5
-24449.5
-24449.5
-24449.5
-24449.5
-24449.5
-24449.5
-24449.5
-24449.5
-24449.5
-24449.5
-24449.5
-24449.5
-24449.5
-24449.5
-24449.5
-24449.5
-24449.5
-24449.5
-24449.5
-42212.6
-40195.7
-37980.5
-36074.4
-34535.4
-33292.4
-32252.5
-31339
-30502.5
-29719.1
-28982.8
-28297.8
-27672.1
-27113.5
-26627
-26213.6
-25870.1
-25590.3
-25365.5
-25186.3
-25039.9
-24932.5
-24841.1
-24767
-24706.4
-24656.6
-24615.6
-24581.8
-24554.2
-24531.6
-24513.4
-24498.8
-24487.2
-24478
-24470.8
-24465.3
-24461.1
-24457.9
-24455.5
-24453.8
-24452.5
-24451.6
-24450.9
-24450.5
-24450.1
-24449.9
-24449.8
-24449.7
-24449.6
-24449.5
-24449.5
-24449.5
-24449.5
-24449.5
-24449.5
-24449.5
-24449.5
-24449.5
-24449.5
-24449.5
-24449.5
-24449.5
-24449.5
-24449.5
-24449.5
-24449.5
-24449.5
-24449.5
-24449.5
-24449.5
-24449.5
-24449.5
-24449.5
-24449.5
-24449.5
-24449.5
-24449.5
-24449.5
-24449.5
-24449.5
-24449.5
-24449.5
-24449.5
-24449.5
-24449.5
-24449.5
-24449.5
-24449.5
-24449.5
-24449.5
-24449.5
-24449.5
-24449.5
-24449.5
-24449.5
-24449.5
-24449.5
-24449.5
-24449.5
-24449.5
-24449.5
-24449.5
-24449.5
-24449.5
-24449.5
-42455.4
-40406
-38154.5
-36218.1
-34659.4
-33406.7
-32363.9
-31451
-30615.9
-29832.7
-29094.1
-28403.7
-27769.7
-27200.6
-26702.2
-26276.6
-25921.6
-25631.5
-25398
-25212.4
-25054.9
-24948.1
-24853.4
-24776.8
-24714.1
-24662.7
-24620.4
-24585.5
-24557
-24533.8
-24515
-24500
-24488
-24478.6
-24471.3
-24465.6
-24461.3
-24458
-24455.6
-24453.8
-24452.5
-24451.6
-24450.9
-24450.5
-24450.1
-24449.9
-24449.8
-24449.7
-24449.6
-24449.5
-24449.5
-24449.5
-24449.5
-24449.5
-24449.5
-24449.5
-24449.5
-24449.5
-24449.5
-24449.5
-24449.5
-24449.5
-24449.5
-24449.5
-24449.5
-24449.5
-24449.5
-24449.5
-24449.5
-24449.5
-24449.5
-24449.5
-24449.5
-24449.5
-24449.5
-24449.5
-24449.5
-24449.5
-24449.5
-24449.5
-24449.5
-24449.5
-24449.5
-24449.5
-24449.5
-24449.5
-24449.5
-24449.5
-24449.5
-24449.5
-24449.5
-24449.5
-24449.5
-24449.5
-24449.5
-24449.5
-24449.5
-24449.5
-24449.5
-24449.5
-24449.5
-24449.5
-24449.5
-24449.5
-24449.5
-42703.1
-40619.3
-38330
-36362
-34782.6
-33519.3
-32473
-31560.5
-30726.9
-29944.2
-29203.9
-28508.9
-27867.2
-27288
-26778.1
-26340.5
-25974
-25673.5
-25431.2
-25237.8
-25086.4
-24964.1
-24865.9
-24786.6
-24722
-24668.9
-24625.2
-24589.3
-24559.9
-24536
-24516.6
-24501.1
-24488.8
-24479.2
-24471.7
-24465.9
-24461.5
-24458.1
-24455.7
-24453.8
-24452.5
-24451.6
-24450.9
-24450.4
-24450.1
-24449.9
-24449.8
-24449.7
-24449.6
-24449.5
-24449.5
-24449.5
-24449.5
-24449.5
-24449.5
-24449.5
-24449.5
-24449.5
-24449.5
-24449.5
-24449.5
-24449.5
-24449.5
-24449.5
-24449.5
-24449.5
-24449.5
-24449.5
-24449.5
-24449.5
-24449.5
-24449.5
-24449.5
-24449.5
-24449.5
-24449.5
-24449.5
-24449.5
-24449.5
-24449.5
-24449.5
-24449.5
-24449.5
-24449.5
-24449.5
-24449.5
-24449.5
-24449.5
-24449.5
-24449.5
-24449.5
-24449.5
-24449.5
-24449.5
-24449.5
-24449.5
-24449.5
-24449.5
-24449.5
-24449.5
-24449.5
-24449.5
-24449.5
-24449.5
-24449.5
-42955.8
-40836
-38507.4
-36506.6
-34905.5
-33630.8
-32580.4
-31667.9
-30835.8
-30054
-29312.5
-28613.3
-27964.7
-27375.9
-26854.8
-26405.4
-26027.4
-25716.5
-25465.1
-25264.3
-25101
-24980.2
-24878.6
-24796.6
-24729.8
-24675.1
-24630
-24593
-24562.8
-24538.1
-24518.2
-24502.3
-24489.7
-24479.8
-24472
-24466.1
-24461.6
-24458.2
-24455.7
-24453.9
-24452.5
-24451.6
-24450.9
-24450.4
-24450.1
-24449.9
-24449.7
-24449.7
-24449.6
-24449.5
-24449.5
-24449.5
-24449.5
-24449.5
-24449.5
-24449.5
-24449.5
-24449.5
-24449.5
-24449.5
-24449.5
-24449.5
-24449.5
-24449.5
-24449.5
-24449.5
-24449.5
-24449.5
-24449.5
-24449.5
-24449.5
-24449.5
-24449.5
-24449.5
-24449.5
-24449.5
-24449.5
-24449.5
-24449.5
-24449.5
-24449.5
-24449.5
-24449.5
-24449.5
-24449.5
-24449.5
-24449.5
-24449.5
-24449.5
-24449.5
-24449.5
-24449.5
-24449.5
-24449.5
-24449.5
-24449.5
-24449.5
-24449.5
-24449.5
-24449.5
-24449.5
-24449.5
-24449.5
-24449.5
-24449.5
-43213.8
-41056.4
-38687.3
-36652.5
-35028.6
-33741.6
-32686.5
-31773.6
-30943
-30162.3
-29420
-28717.3
-28062.1
-27464.3
-26932.4
-26471.4
-26081.9
-25760.4
-25499.9
-25291.9
-25115.1
-24996.7
-24891.4
-24806.7
-24737.8
-24681.3
-24634.9
-24596.8
-24565.6
-24540.3
-24519.8
-24503.5
-24490.5
-24480.3
-24472.4
-24466.4
-24461.8
-24458.3
-24455.8
-24453.9
-24452.5
-24451.6
-24450.9
-24450.4
-24450.1
-24449.9
-24449.7
-24449.6
-24449.6
-24449.5
-24449.5
-24449.5
-24449.5
-24449.5
-24449.5
-24449.5
-24449.5
-24449.5
-24449.5
-24449.5
-24449.5
-24449.5
-24449.5
-24449.5
-24449.5
-24449.5
-24449.5
-24449.5
-24449.5
-24449.5
-24449.5
-24449.5
-24449.5
-24449.5
-24449.5
-24449.5
-24449.5
-24449.5
-24449.5
-24449.5
-24449.5
-24449.5
-24449.5
-24449.5
-24449.5
-24449.5
-24449.5
-24449.5
-24449.5
-24449.5
-24449.5
-24449.5
-24449.5
-24449.5
-24449.5
-24449.5
-24449.5
-24449.5
-24449.5
-24449.5
-24449.5
-24449.5
-24449.5
-24449.5
-24449.5
-43477.2
-41280.9
-38870
-36800
-35152.3
-33852
-32791.4
-31877.9
-31048.6
-30269.2
-29526.5
-28820.8
-28159.7
-27553.4
-27011
-26538.6
-26137.6
-25805.4
-25535.4
-25319.1
-25148.5
-25013.4
-24904.4
-24816.8
-24745.8
-24687.6
-24639.8
-24600.6
-24568.5
-24542.5
-24521.4
-24504.6
-24491.3
-24480.9
-24472.8
-24466.6
-24461.9
-24458.4
-24455.8
-24453.9
-24452.6
-24451.6
-24450.9
-24450.4
-24450.1
-24449.9
-24449.7
-24449.6
-24449.6
-24449.5
-24449.5
-24449.5
-24449.5
-24449.5
-24449.5
-24449.5
-24449.5
-24449.5
-24449.5
-24449.5
-24449.5
-24449.5
-24449.5
-24449.5
-24449.5
-24449.5
-24449.5
-24449.5
-24449.5
-24449.5
-24449.5
-24449.5
-24449.5
-24449.5
-24449.5
-24449.5
-24449.5
-24449.5
-24449.5
-24449.5
-24449.5
-24449.5
-24449.5
-24449.5
-24449.5
-24449.5
-24449.5
-24449.5
-24449.5
-24449.5
-24449.5
-24449.5
-24449.5
-24449.5
-24449.5
-24449.5
-24449.5
-24449.5
-24449.5
-24449.5
-24449.5
-24449.5
-24449.5
-24449.5
-24449.5
-43746.3
-41510.1
-39056.1
-36949.7
-35277
-33962.5
-32895.8
-31981.1
-31153
-30375
-29632.3
-28924.1
-28257.6
-27643.2
-27090.7
-26607
-26194.6
-25851.5
-25571.9
-25347.6
-25165.7
-25030.4
-24917.6
-24827.1
-24753.8
-24693.9
-24644.7
-24604.4
-24571.4
-24544.6
-24523
-24505.8
-24492.1
-24481.4
-24473.2
-24466.8
-24462.1
-24458.5
-24455.9
-24453.9
-24452.6
-24451.6
-24450.9
-24450.4
-24450.1
-24449.9
-24449.7
-24449.6
-24449.6
-24449.5
-24449.5
-24449.5
-24449.5
-24449.5
-24449.5
-24449.5
-24449.5
-24449.5
-24449.5
-24449.5
-24449.5
-24449.5
-24449.5
-24449.5
-24449.5
-24449.5
-24449.5
-24449.5
-24449.5
-24449.5
-24449.5
-24449.5
-24449.5
-24449.5
-24449.5
-24449.5
-24449.5
-24449.5
-24449.5
-24449.5
-24449.5
-24449.5
-24449.5
-24449.5
-24449.5
-24449.5
-24449.5
-24449.5
-24449.5
-24449.5
-24449.5
-24449.5
-24449.5
-24449.5
-24449.5
-24449.5
-24449.5
-24449.5
-24449.5
-24449.5
-24449.5
-24449.5
-24449.5
-24449.5
-24449.5
-44021.5
-41744.2
-39246.1
-37102.2
-35403.2
-34073.5
-32999.7
-32083.4
-31256.3
-30479.8
-29737.4
-29027.2
-28355.9
-27733.9
-27171.7
-26676.9
-26253
-25898.9
-25609.5
-25377.3
-25179.4
-25047.7
-24930.9
-24837.5
-24761.9
-24700.2
-24649.6
-24608.2
-24574.3
-24546.8
-24524.6
-24506.9
-24492.9
-24482
-24473.5
-24467.1
-24462.2
-24458.6
-24455.9
-24453.9
-24452.6
-24451.6
-24450.9
-24450.4
-24450.1
-24449.9
-24449.7
-24449.6
-24449.6
-24449.5
-24449.5
-24449.5
-24449.5
-24449.5
-24449.5
-24449.5
-24449.5
-24449.5
-24449.5
-24449.5
-24449.5
-24449.5
-24449.5
-24449.5
-24449.5
-24449.5
-24449.5
-24449.5
-24449.5
-24449.5
-24449.5
-24449.5
-24449.5
-24449.5
-24449.5
-24449.5
-24449.5
-24449.5
-24449.5
-24449.5
-24449.5
-24449.5
-24449.5
-24449.5
-24449.5
-24449.5
-24449.5
-24449.5
-24449.5
-24449.5
-24449.5
-24449.5
-24449.5
-24449.5
-24449.5
-24449.5
-24449.5
-24449.5
-24449.5
-24449.5
-24449.5
-24449.5
-24449.5
-24449.5
-24449.5
-44302.9
-41983.8
-39440.5
-37257.9
-35531.5
-34185.4
-33103.8
-32185.1
-31358.8
-30583.9
-29842.1
-29130.3
-28454.6
-27825.6
-27254
-26748.4
-26313
-25947.6
-25648.1
-25406.6
-25215.1
-25065.4
-24944.5
-24847.9
-24770
-24706.5
-24654.6
-24612
-24577.2
-24548.9
-24526.2
-24508
-24493.7
-24482.5
-24473.8
-24467.3
-24462.3
-24458.6
-24455.9
-24453.9
-24452.5
-24451.6
-24450.9
-24450.4
-24450.1
-24449.9
-24449.7
-24449.6
-24449.6
-24449.5
-24449.5
-24449.5
-24449.5
-24449.5
-24449.5
-24449.5
-24449.5
-24449.5
-24449.5
-24449.5
-24449.5
-24449.5
-24449.5
-24449.5
-24449.5
-24449.5
-24449.5
-24449.5
-24449.5
-24449.5
-24449.5
-24449.5
-24449.5
-24449.5
-24449.5
-24449.5
-24449.5
-24449.5
-24449.5
-24449.5
-24449.5
-24449.5
-24449.5
-24449.5
-24449.5
-24449.5
-24449.5
-24449.5
-24449.5
-24449.5
-24449.5
-24449.5
-24449.5
-24449.5
-24449.5
-24449.5
-24449.5
-24449.5
-24449.5
-24449.5
-24449.5
-24449.5
-24449.5
-24449.5
-24449.5
-44590.9
-42229.3
-39640
-37417.4
-35662.4
-34298.7
-33208.2
-32286.6
-31460.8
-30687.4
-29946.4
-29233.4
-28554
-27918.4
-27337.9
-26821.5
-26374.6
-25997.9
-25687.8
-25437.5
-25234.1
-25083.4
-24958.1
-24858.4
-24778.1
-24712.9
-24659.5
-24615.7
-24580
-24551
-24527.7
-24509.1
-24494.4
-24483
-24474.2
-24467.4
-24462.4
-24458.7
-24455.9
-24453.9
-24452.5
-24451.5
-24450.9
-24450.4
-24450.1
-24449.9
-24449.7
-24449.6
-24449.6
-24449.5
-24449.5
-24449.5
-24449.5
-24449.5
-24449.5
-24449.5
-24449.5
-24449.5
-24449.5
-24449.5
-24449.5
-24449.5
-24449.5
-24449.5
-24449.5
-24449.5
-24449.5
-24449.5
-24449.5
-24449.5
-24449.5
-24449.5
-24449.5
-24449.5
-24449.5
-24449.5
-24449.5
-24449.5
-24449.5
-24449.5
-24449.5
-24449.5
-24449.5
-24449.5
-24449.5
-24449.5
-24449.5
-24449.5
-24449.5
-24449.5
-24449.5
-24449.5
-24449.5
-24449.5
-24449.5
-24449.5
-24449.5
-24449.5
-24449.5
-24449.5
-24449.5
-24449.5
-24449.5
-24449.5
-24449.5
-44885.9
-42481.3
-39845.1
-37581.4
-35796.4
-34413.8
-33313.4
-32388.2
-31562.4
-30790.5
-30050.5
-29336.8
-28654.1
-28012.5
-27423.4
-26896.6
-26438.1
-26049.7
-25728.9
-25469.7
-25248
-25101.7
-24972
-24869
-24786.3
-24719.2
-24664.4
-24619.5
-24582.8
-24553.1
-24529.2
-24510.1
-24495.1
-24483.4
-24474.4
-24467.6
-24462.5
-24458.7
-24455.9
-24453.9
-24452.5
-24451.5
-24450.8
-24450.4
-24450.1
-24449.8
-24449.7
-24449.6
-24449.6
-24449.5
-24449.5
-24449.5
-24449.5
-24449.5
-24449.5
-24449.5
-24449.5
-24449.5
-24449.5
-24449.5
-24449.5
-24449.5
-24449.5
-24449.5
-24449.5
-24449.5
-24449.5
-24449.5
-24449.5
-24449.5
-24449.5
-24449.5
-24449.5
-24449.5
-24449.5
-24449.5
-24449.5
-24449.5
-24449.5
-24449.5
-24449.5
-24449.5
-24449.5
-24449.5
-24449.5
-24449.5
-24449.5
-24449.5
-24449.5
-24449.5
-24449.5
-24449.5
-24449.5
-24449.5
-24449.5
-24449.5
-24449.5
-24449.5
-24449.5
-24449.5
-24449.5
-24449.5
-24449.5
-24449.5
-24449.5
-45188.3
-42740.5
-40056.5
-37750.5
-35934
-34531.2
-33419.7
-32490
-31663.8
-30893.3
-30154.5
-29440.4
-28755
-28108
-27510.8
-26973.7
-26503.6
-26103.3
-25771.2
-25501.5
-25287
-25120.4
-24986
-24879.7
-24794.5
-24725.5
-24669.2
-24623.2
-24585.6