/*--------------------------------*- C++ -*----------------------------------*\
  =========                 |
  \\      /  F ield         | OpenFOAM: The Open Source CFD Toolbox
   \\    /   O peration     | Website:  https://openfoam.org
    \\  /    A nd           | Version:  6
     \\/     M anipulation  |
\*---------------------------------------------------------------------------*/
FoamFile
{
    version     2.0;
    format      ascii;
    class       volScalarField;
    location    "0";
    object      p;
}
// * * * * * * * * * * * * * * * * * * * * * * * * * * * * * * * * * * * * * //

dimensions      [1 -1 -2 0 0 0 0];

internalField   nonuniform List<scalar> 
18060
(
-4.71851e+06
-4.09413e+06
-3.75621e+06
-2.88822e+06
-2.56647e+06
-1.8016e+06
-1.53947e+06
-996949
-816746
-509825
-411314
-273373
-212985
-152765
-119183
-93188.4
-75107.9
-61322.2
-50655.5
-42203.6
-35370.2
-29770.9
-25124.1
-21235.3
-17953.7
-15167.8
-12790.6
-10751.9
-8997.56
-7483.49
-6173.79
-5038.56
-4052.72
-3195
-2447.17
-1793.52
-1220.53
-716.454
-271.127
124.299
477.453
794.861
1082.13
1344
1584.47
1806.78
2013.57
2206.97
2388.93
2560.62
2721.8
2873.67
3017.06
3152.31
3279.12
3397.55
3507.56
3608.77
3700.94
3783.94
3857.55
3921.46
3975.46
4019.31
4052.82
4075.85
4088.3
4090.09
4081.17
4061.55
4031.3
3990.51
3939.34
3877.97
3806.61
3725.58
3635.13
3535.53
3427.37
3310.95
3186.68
3054.78
2915.5
2770.43
2619.8
2463.57
2302.35
2136.69
1967.11
1794.12
1618.24
1440.02
1259.94
1078.5
896.194
713.588
531.47
349.936
169.779
-8.58224
-184.153
-356.267
-526.61
-697.531
-927.662
-488087
-12809
-122194
-48726.5
-40827.6
-36084
-11974
-2871.62
-2912.74
-1587.28
-270.427
1515.35
219.674
-739.084
-1892.26
-2494.23
-3117.47
-3517.64
-3858.96
-4111.52
-4309.83
-4457.41
-4561.14
-4624.59
-4652.07
-4646.07
-4606.81
-4537.17
-4440.28
-4317.75
-4171.66
-4004.12
-3817.28
-3613.15
-3393.59
-3160.37
-2915.18
-2659.6
-2395.09
-2123
-1844.59
-1561.22
-1273.93
-983.574
-691.17
-397.782
-104.238
188.563
479.827
768.159
1051
1329.69
1604.92
1871.75
2131.16
2382.17
2623.97
2855.58
3076.23
3285.07
3481.36
3664.26
3833.09
3987.14
4125.85
4248.66
4355.13
4444.82
4517.45
4572.72
4610.47
4630.6
4633.07
4617.93
4585.28
4535.36
4468.44
4384.8
4285.04
4169.52
4038.67
3892.59
3728.45
3554.84
3369.27
3171.19
2961.6
2741.2
2510.79
2271.11
2022.92
1766.94
1504.01
1235.05
960.207
680.48
397.148
109.965
-179.991
-472.293
-765.985
-1061.18
-1363.47
-1677.14
-2106.16
69129.7
52652
24714.2
15494.1
12398.8
10214
8133.1
6071.09
3777.03
1866.51
298.69
-1203.89
-2631.34
-3862.36
-4844.36
-5652.48
-6309.73
-6851.1
-7292.28
-7651.82
-7942.76
-8175.22
-8357.13
-8494
-8586.05
-8635.25
-8646.93
-8623.93
-8568.91
-8483.55
-8370.04
-8230.54
-8067.25
-7882.27
-7677.48
-7454.75
-7215.94
-6962.63
-6696.25
-6418.35
-6130.26
-5833.33
-5528.71
-5218.58
-4901.58
-4580.15
-4254.61
-3926.37
-3597.43
-3268.89
-2941.24
-2614.34
-2288.18
-1967.52
-1651.23
-1340.36
-1035.91
-738.701
-449.74
-170.015
99.5883
358.178
604.864
838.856
1059.41
1265.84
1457.5
1633.82
1794.37
1938.7
2066.43
2177.25
2270.94
2347.31
2406.28
2447.82
2472.14
2479.48
2469.81
2443.48
2400.78
2341.82
2263.72
2173.46
2068.88
1949.61
1816.42
1669.8
1510.37
1338.65
1155.17
960.32
754.874
539.765
314.189
79.0114
-164.986
-418.266
-680.492
-951.552
-1232.32
-1524.54
-1836.88
-2172.57
-2619.68
33663.6
10607.9
11165.3
12512.9
11696.7
7530.34
4360.06
1937.61
-50.4156
-1896.97
-3471.99
-4872.44
-6083.88
-7208.7
-8199.52
-9065.26
-9800.08
-10422.6
-10946.1
-11385.1
-11750.7
-12050.6
-12287.7
-12467.1
-12595.7
-12679.3
-12721.6
-12724.9
-12692.1
-12625.6
-12527.5
-12400.3
-12246.2
-12067.3
-11865.5
-11642.8
-11401.1
-11141.9
-10866.7
-10577.3
-10274.8
-9960.51
-9635.89
-9303.18
-8961.25
-8611.4
-8256.07
-7895.79
-7532.58
-7168.11
-6801.47
-6433.07
-6066.94
-5700.47
-5336.14
-4974.95
-4618.01
-4266.14
-3920.47
-3581.96
-3251.64
-2930.39
-2619.16
-2318.8
-2030.12
-1753.91
-1490.92
-1241.74
-1006.98
-787.132
-582.702
-394.134
-221.801
-66.0059
73.0244
195.101
300.299
388.711
460.1
514.709
552.817
574.904
584.225
573.582
546.5
503.358
444.631
370.801
282.187
179.073
61.7029
-69.6973
-214.732
-372.849
-544.849
-730.484
-929.674
-1142.96
-1370.87
-1614.03
-1874.77
-2155.79
-2467.7
-2813.48
-3283.27
16340.4
13364.1
11854.6
11502.9
7231.2
3725.87
750.911
-1765.9
-3898.48
-5763.64
-7399.64
-8836.42
-10091.9
-11202
-12181.9
-13040.5
-13787.5
-14430.1
-14977.7
-15441.4
-15825.4
-16138
-16389.1
-16583
-16724.2
-16817.4
-16866.5
-16874.5
-16843.9
-16777
-16676.5
-16544.8
-16384
-16195.9
-15982.5
-15745.8
-15487.6
-15209.4
-14912.8
-14599.4
-14270.5
-13927.3
-13571.2
-13202.7
-12824.8
-12435.5
-12040.3
-11638
-11230.7
-10819.1
-10403.2
-9984.52
-9566.25
-9145.61
-8725.21
-8306.17
-7889.67
-7476.76
-7068.55
-6666.11
-6270.52
-5882.76
-5503.82
-5134.64
-4776.13
-4429.17
-4094.58
-3773.11
-3465.41
-3172.1
-2893.81
-2631.08
-2384.4
-2154.18
-1940.78
-1744.48
-1565.41
-1403.65
-1259.38
-1132.53
-1022.89
-929.848
-850.008
-791.895
-752.19
-730.303
-725.922
-738.578
-768.167
-814.615
-877.897
-957.882
-1054.59
-1167.86
-1298.29
-1446.21
-1612.03
-1796.61
-2001.14
-2227.12
-2477.64
-2756.24
-3074.35
-3434.46
-3932.11
-289.92
6810.39
5607.68
3117.42
119.619
-2485.54
-4824.38
-6917.47
-8786.5
-10455.9
-11949.6
-13283.5
-14472.7
-15528.5
-16463.2
-17287.6
-18009.2
-18636.2
-19175
-19633.3
-20018.9
-20336.3
-20591.1
-20788.2
-20931.7
-21025.7
-21073.8
-21079.2
-21044.3
-20971.5
-20863.3
-20721.8
-20549.1
-20347.2
-20117.9
-19862.9
-19584.1
-19283
-18961.4
-18620.1
-18261.2
-17885.7
-17494.8
-17088.8
-16671.5
-16240.7
-15800.9
-15353
-14898.2
-14436.2
-13967.4
-13494.6
-13018.6
-12540.1
-12060.2
-11580.1
-11100.9
-10623.9
-10150.1
-9680.85
-9217.18
-8760.22
-8311.03
-7870.67
-7440.13
-7020.4
-6612.4
-6216.99
-5834.95
-5467.04
-5113.96
-4776.39
-4454.93
-4150.1
-3862.39
-3592.19
-3339.8
-3105.43
-2889.32
-2691.56
-2512.07
-2350.54
-2206.81
-2083.17
-1979.48
-1895.42
-1830.81
-1785.43
-1759.3
-1752.5
-1765.18
-1797.48
-1849.54
-1921.6
-2014.34
-2128.44
-2264.71
-2424.39
-2609.21
-2821.29
-3064.41
-3342.6
-3669
-4042.44
-4563.76
-9197.7
-3598.32
-4902.13
-6345.28
-7861.21
-9515.04
-11167.5
-12760
-14261.1
-15655
-16936.8
-18107.3
-19169.9
-20129.2
-20989.4
-21755.7
-22432.8
-23025
-23537.5
-23974.4
-24342.8
-24648.5
-24894.1
-25083.2
-25219.1
-25305.4
-25345.3
-25341.8
-25296.9
-25213
-25092.3
-24936.8
-24748.6
-24529.3
-24280.9
-24005.1
-23703.1
-23376.7
-23027.5
-22656.7
-22265.9
-21856.4
-21429.4
-20985.8
-20526.6
-20054.6
-19570.1
-19075.2
-18570.8
-18057.5
-17535.8
-17008
-16475.1
-15938.1
-15398
-14856.2
-14313.8
-13772.1
-13232.4
-12695.8
-12163.6
-11637.1
-11117.3
-10605.3
-10102.4
-9609.55
-9127.81
-8658.15
-8201.48
-7758.66
-7330.54
-6917.89
-6521.41
-6141.78
-5779.57
-5435.31
-5109.43
-4802.31
-4514.28
-4245.58
-3996.31
-3766.53
-3556.53
-3367.56
-3199.96
-3053.73
-2928.89
-2825.47
-2743.62
-2683.59
-2645.68
-2630.28
-2637.71
-2668.55
-2723.63
-2803.96
-2910.66
-3045.35
-3210.24
-3407.93
-3642.7
-3918.68
-4250.94
-4636.42
-5177.21
-18724.1
-12899.4
-13440.2
-14241.1
-15252.8
-16395.2
-17603.8
-18821.2
-20009.2
-21145
-22214.8
-23211.3
-24130.7
-24971.9
-25735.5
-26422.6
-27035.7
-27577.2
-28049.6
-28454.2
-28793.5
-29073.1
-29297.4
-29468.3
-29587.5
-29657.9
-29682.6
-29663.4
-29602.5
-29502
-29363.9
-29190
-28982
-28741.6
-28470.4
-28170.1
-27842
-27487.7
-27108.6
-26706
-26281.3
-25836
-25371.1
-24888.1
-24384.6
-23870
-23340.3
-22798.2
-22243.7
-21677.7
-21102.3
-20518.9
-19928.6
-19332.5
-18731.9
-18128
-17522.1
-16915.5
-16309.6
-15705.6
-15104.8
-14508.6
-13918.1
-13334.7
-12759.5
-12193.6
-11638.2
-11094.5
-10563.4
-10045.8
-9542.87
-9055.33
-8584.06
-8129.82
-7693.33
-7275.23
-6876.08
-6496.4
-6136.65
-5797.21
-5478.39
-5180.49
-4904.06
-4649.87
-4418.47
-4210.14
-4025.12
-3863.63
-3726
-3612.63
-3524.03
-3460.71
-3423.33
-3412.67
-3429.79
-3476.02
-3552.73
-3661.87
-3806.23
-3988.62
-4213.62
-4486.32
-4820.97
-5215.13
-5776.17
-27122.8
-21074.6
-21313.9
-21746.2
-22404.8
-23196.4
-24072.1
-24987.5
-25909
-26813.3
-27684.1
-28510.5
-29285.4
-30003.9
-30663.3
-31262.1
-31799.9
-32277.5
-32696.3
-33057.2
-33359.6
-33605.1
-33797.9
-33940.8
-34035.3
-34083
-34085.2
-34044.1
-33961.6
-33839.4
-33679.1
-33482.1
-33250
-32984.5
-32687
-32358.9
-32001.4
-31616.1
-31204.5
-30767.7
-30306.7
-29823.1
-29318.4
-28792.3
-28246.9
-27686.4
-27109.1
-26518.3
-25913
-25293.5
-24663.2
-24023.2
-23374.6
-22718.7
-22056.8
-21390.2
-20720.2
-20048.3
-19375.7
-18704
-18034.3
-17368.2
-16706.9
-16051.8
-15404.2
-14765.3
-14136.4
-13518.6
-12913.2
-12321.1
-11743.5
-11181.3
-10635.4
-10106.9
-9596.41
-9104.78
-8632.69
-8180.79
-7749.66
-7339.84
-6951.81
-6586.08
-6243.27
-5924.1
-5629.2
-5359.07
-5114.11
-4894.77
-4701.55
-4535
-4395.81
-4284.71
-4202.55
-4150.37
-4129.46
-4141.44
-4187.89
-4271.18
-4394.66
-4560.95
-4775.08
-5042.59
-5377.56
-5777.92
-6354.46
-34737.4
-28568.8
-28658.8
-28876.9
-29294.9
-29840.5
-30473.5
-31157.7
-31864.7
-32573.8
-33269.6
-33940.8
-34578.9
-35177.6
-35732.3
-36239.9
-36698.5
-37106.8
-37464.8
-37772.1
-38028.6
-38234.7
-38389.9
-38497.1
-38559.6
-38577.9
-38552.3
-38484
-38374.6
-38225.4
-38038
-37813.7
-37553.6
-37259.3
-36931.9
-36572.7
-36182.9
-35763.7
-35316.5
-34842.8
-34343.5
-33819.5
-33272.8
-32700.6
-32112.6
-31505.2
-30879.5
-30236.5
-29577.9
-28904.6
-28218.5
-27520.9
-26813.2
-26096.6
-25372.6
-24642.5
-23907.7
-23169.8
-22430
-21689.9
-20951
-20214.6
-19482.2
-18755.2
-18035
-17323
-16620.4
-15928.7
-15248.9
-14582.3
-13930.1
-13293.4
-12673.2
-12070.5
-11486.3
-10921.4
-10376.6
-9852.81
-9350.62
-8870.74
-8413.81
-7980.49
-7571.5
-7187.6
-6829.5
-6497.86
-6193.28
-5916.36
-5667.77
-5448.26
-5258.66
-5099.91
-4973.07
-4879.42
-4820.46
-4798.08
-4814.12
-4871.61
-4973.59
-5122.83
-5325.18
-5585.92
-5919.91
-6324.86
-6909.67
-41854.3
-35600.2
-35608
-35691.5
-35948.8
-36322.8
-36779.4
-37288
-37825.5
-38374.4
-38921.2
-39455.7
-39969.8
-40456.6
-40910.7
-41328.1
-41706.7
-42044.1
-42337.9
-42586.6
-42792.4
-42951.1
-43065.6
-43133.4
-43157.4
-43140.3
-43081.5
-42981.3
-42840.4
-42660
-42441.3
-42185.5
-41893.7
-41566.8
-41206
-40812.7
-40387.6
-39931.7
-39446.4
-38932.9
-38392.5
-37826.1
-37233.8
-36618
-35982.2
-35325.3
-34649.9
-33955
-33241.6
-32512.6
-31769.3
-31013
-30245
-29466.8
-28679.8
-27885.3
-27085.1
-26280.4
-25472.8
-24663.9
-23855.1
-23048.1
-22244.2
-21445
-20652
-19866.7
-19090.4
-18324.5
-17570.4
-16829.3
-16102.6
-15391.5
-14697
-14020.3
-13362.5
-12724.6
-12107.4
-11511.9
-10938.9
-10389.2
-9863.65
-9362.97
-8888
-8439.58
-8018.53
-7625.64
-7261.67
-6927.4
-6623.66
-6351.36
-6111.51
-5905.23
-5733.79
-5598.67
-5501.59
-5444.78
-5430.64
-5461.85
-5541.51
-5673.14
-5862.68
-6115.92
-6448.1
-6853.29
-7444.09
-48638.2
-42306
-42265.4
-42258.9
-42405.9
-42658.3
-42985.7
-43361.3
-43765.7
-44184.6
-44606.9
-45023.7
-45427.8
-45812.6
-46172.9
-46505
-46806.5
-47072.5
-47300.2
-47489.2
-47641.9
-47749
-47815.8
-47842
-47825.2
-47767.3
-47670.7
-47534.1
-47357.6
-47142.3
-46888.7
-46597.8
-46270.5
-45907.8
-45510.6
-45079.6
-44616.1
-44120.8
-43594.8
-43039.2
-42455.1
-41843.9
-41203.4
-40542.7
-39858
-39150.4
-38421.9
-37672.7
-36903.8
-36117.8
-35316.1
-34499.9
-33670.6
-32829.7
-31978.7
-31119.1
-30252.5
-29380.4
-28504.3
-27626
-26746.9
-25868.7
-24993
-24121.3
-23255.2
-22396.3
-21546.1
-20706
-19877.5
-19061.9
-18260.7
-17475.2
-16706.6
-15956
-15224.8
-14514
-13824.5
-13157.6
-12514
-11894.7
-11300.8
-10732.9
-10192.2
-9679.44
-9195.65
-8741.74
-8318.59
-7927.17
-7568.45
-7243.51
-6953.53
-6699.79
-6483.78
-6307.16
-6171.84
-6080.89
-6036.33
-6040.53
-6097.63
-6210.5
-6386.26
-6630.74
-6959.4
-7363.65
-7958.93
-55187.2
-48777.1
-48706.3
-48637.5
-48706.3
-48870.5
-49101.8
-49375.4
-49675
-49988.7
-50307.4
-50623.8
-50931.5
-51225.3
-51501.8
-51755
-51980.6
-52176.4
-52339.7
-52469.8
-52563.1
-52618.6
-52636.9
-52616.7
-52556.8
-52456.4
-52317.4
-52140.7
-51925.4
-51671.4
-51379.5
-51050.2
-50684.3
-50282.5
-49845.5
-49374.1
-48869.4
-48332.1
-47762.9
-47162.8
-46532.8
-45873.6
-45186.5
-44475
-43739
-42979.5
-42196.4
-41390.9
-40565.2
-39721
-38859.4
-37982
-37090.3
-36185.6
-35269.7
-34344
-33410.2
-32469.8
-31524.6
-30576.2
-29626.2
-28676.4
-27728.4
-26783.8
-25844.4
-24911.7
-23987.3
-23072.8
-22169.8
-21279.7
-20404
-19544.1
-18701.4
-17877.1
-17072.6
-16289
-15527.5
-14789.2
-14075.2
-13386.6
-12724.4
-12089.6
-11483.3
-10906.4
-10360.1
-9845.34
-9363.22
-8914.81
-8501.26
-8123.8
-7783.78
-7482.65
-7222.08
-7003.86
-6830.37
-6705.42
-6630.01
-6607.07
-6640.36
-6733.59
-6894.96
-7129.78
-7452.35
-7855.36
-8453.56
-61566.7
-55077.7
-54986.9
-54872.2
-54883.9
-54982.8
-55141.3
-55335.9
-55552.4
-55780.4
-56012.2
-56243.5
-56469.7
-56683.8
-56882
-57060.7
-57216
-57345.2
-57446.2
-57516.2
-57554.7
-57555.8
-57523.8
-57454.4
-57348
-57203.2
-57020
-56799.9
-56542.3
-56246.4
-55913
-55542.4
-55134.8
-54691
-54211.5
-53696.9
-53147.9
-52565.6
-51950.9
-51304.1
-50626
-49916
-49181.2
-48417.8
-47626.8
-46812.2
-45973.8
-45110.9
-44226.6
-43322.5
-42399.7
-41459.8
-40504.3
-39534.8
-38552.9
-37560.1
-36558.2
-35548.8
-34533.6
-33514.4
-32493
-31471
-30450.2
-29432.3
-28419.2
-27412.4
-26413.6
-25424.6
-24446.9
-23482.2
-22532
-21597.7
-20680.9
-19782.9
-18905.1
-18048.9
-17215.5
-16406.1
-15621.9
-14864.1
-14133.9
-13432.3
-12760.5
-12119.7
-11511
-10935.6
-10394.7
-9889.43
-9421.19
-8991.32
-8601.33
-8252.84
-7947.66
-7687.75
-7476.48
-7317.4
-7211.1
-7159.77
-7168.33
-7241.74
-7387.59
-7611.28
-7927.15
-8327.14
-8926.69
-67822.8
-61253.1
-61150.8
-60999.7
-60966.3
-61016.1
-61118.8
-61251.4
-61401.1
-61559.3
-61720.2
-61879.3
-62032.3
-62174.8
-62303.1
-62414.2
-62504.6
-62570.8
-62610.9
-62622.2
-62609.7
-62555.7
-62469.7
-62350.6
-62195.9
-62004.5
-61775.5
-61509.2
-61206.3
-60866.2
-60488.6
-60073.8
-59622
-59133.4
-58608.6
-58048.1
-57452.6
-56822.7
-56159.2
-55462.9
-54735.2
-53974.2
-53185.4
-52368.7
-51524.1
-50651.9
-49754.3
-48832.6
-47888.3
-46922.7
-45937.3
-44933.6
-43913.1
-42877.5
-41828.4
-40767.5
-39696.5
-38617.2
-37531.3
-36440.7
-35347.1
-34252.3
-33158.2
-32066.6
-30979.3
-29898.1
-28824.7
-27760.9
-26708.4
-25668.9
-24644.1
-23635.4
-22644.5
-21672.9
-20721.9
-19793.2
-18887.9
-18007.5
-17153.3
-16326.5
-15528.3
-14760.1
-14023.1
-13318.5
-12647.6
-12011.7
-11412.1
-10850.1
-10327.3
-9845.12
-9405.22
-9009.39
-8659.45
-8358.09
-8109.3
-7916.27
-7777.88
-7697.03
-7680.89
-7733.6
-7863.48
-8075.05
-8383.67
-8779.1
-9378.4
-73990.2
-67336.7
-67227.4
-67048.3
-66980.2
-66991.4
-67049.7
-67132.2
-67227.4
-67327.6
-67428.1
-67525.2
-67615.4
-67695
-67760.7
-67809.8
-67839.4
-67846.7
-67829
-67785.4
-67712.4
-67608
-67471.2
-67301.4
-67097.2
-66857.4
-66580.7
-66266.8
-65916.7
-65530.2
-65106
-64644.2
-64145.3
-63609.4
-63036.8
-62427.9
-61783.3
-61103.4
-60388.9
-59640.5
-58858.4
-58046
-57202.9
-56329.4
-55427.6
-54497.4
-53539.7
-52557.1
-51550.8
-50522.1
-49472.5
-48403.5
-47316.7
-46213.8
-45096.4
-43966.3
-42825.3
-41675.1
-40517.6
-39354.7
-38188.2
-37020.1
-35852.1
-34686.3
-33524.4
-32368.4
-31220.1
-30081.3
-28953.8
-27839.4
-26739.8
-25656.6
-24591.6
-23546.3
-22522.3
-21521.1
-20544.1
-19592.8
-18668.6
-17772.9
-16907
-16072.3
-15270.1
-14501.9
-13768.9
-13072.7
-12414.5
-11796
-11218.7
-10684.3
-10194.5
-9751.28
-9356.58
-9014.22
-8728.24
-8500.44
-8328.48
-8218.36
-8176.74
-8208.64
-8321.94
-8520.93
-8820.33
-9210.03
-9807.92
-80095.6
-73355.5
-73242.2
-73040
-72944.1
-72924.4
-72947
-72988.6
-73038.6
-73090.2
-73139.3
-73182.8
-73217.7
-73241.2
-73250.5
-73243.1
-73216.4
-73168
-73095.8
-72997.7
-72871.8
-72712.8
-72525.3
-72304.2
-72049.4
-71759.8
-71434.3
-71071.6
-70672.3
-70236.8
-69763.5
-69252.8
-68704.6
-68119
-67496.1
-66836.4
-66140.2
-65408
-64640.4
-63838.2
-62999.7
-62132
-61232.1
-60300
-59338.6
-58348.7
-57329.5
-56284.2
-55214.3
-54120.9
-53005.5
-51869.8
-50715.3
-49543.8
-48356.9
-47156.4
-45944.3
-44722.3
-43492.4
-42256.4
-41016.3
-39774.1
-38531.7
-37291.1
-36054.2
-34823
-33599.3
-32385.2
-31182.5
-29993
-28818.5
-27660.8
-26521.6
-25402.6
-24305.5
-23231.9
-22183.2
-21161.1
-20167.1
-19202.6
-18269.1
-17368
-16500.9
-15669.1
-14874.2
-14117.8
-13401.2
-12726.3
-12094.6
-11507.9
-10968.3
-10477.5
-10038.3
-9655.41
-9332.42
-9068.21
-8862.34
-8722.55
-8655.12
-8666.22
-8762.01
-8946.82
-9236.18
-9619.68
-10214.5
-86159.9
-79330.2
-79215.1
-78993.2
-78874.2
-78829.5
-78822.8
-78830.4
-78842.3
-78852.4
-78857.1
-78853.6
-78839.7
-78812.9
-78770.9
-78711.6
-78632.4
-78531.4
-78406.4
-78254.9
-78080.4
-77868.8
-77629
-77356.6
-77050.7
-76710.2
-76334.3
-75921.7
-75471.8
-74984.9
-74461.1
-73899.3
-73299.6
-72662
-71986.5
-71273.6
-70523.5
-69736.7
-68913.6
-68055.1
-67160.2
-66233.9
-65274.2
-64282.4
-63259.2
-62205.9
-61123.7
-60014.3
-58879
-57719.3
-56536.6
-55332.6
-54109
-52867.5
-51609.8
-50337.9
-49053.6
-47758.7
-46455.4
-45145.5
-43831
-42514
-41196.5
-39880.6
-38568.1
-37261.3
-35962
-34672.3
-33394
-32129.2
-30879.7
-29647.3
-28433.9
-27241.2
-26070.9
-24924.9
-23804.6
-22711.8
-21648
-20614.8
-19613.8
-18646.5
-17714.5
-16819.4
-15962.7
-15146.1
-14371.2
-13639.9
-12953.8
-12315
-11725.6
-11187.2
-10703.9
-10281.1
-9920.1
-9618.4
-9378.41
-9208.35
-9115.81
-9105.26
-9182.68
-9352.49
-9631.3
-10007
-10597.8
-92199.7
-85277.9
-85162.1
-84923.1
-84784.5
-84719.3
-84687.9
-84666.8
-84646
-84620
-84585.7
-84540.8
-84483.2
-84410.9
-84322.1
-84214.6
-84086.5
-83935.7
-83760.2
-83558.7
-83332
-83071.9
-82779.5
-82456.3
-82099.1
-81707.2
-81279.7
-80815.8
-80314.2
-79774.7
-79197.9
-78583.1
-77929.8
-77238
-76507.7
-75739.2
-74933.3
-74089.6
-73208.8
-72290.7
-71338.3
-70350.7
-69328.7
-68275.2
-67189
-66070.9
-64923.3
-63747.7
-62545.2
-61317.4
-60065.8
-58792
-57497.8
-56184.9
-54855.2
-53510.5
-52152.9
-50784.2
-49406.4
-48021.7
-46632
-45239.5
-43846.2
-42454.3
-41065.9
-39682.9
-38307.5
-36941.8
-35587.8
-34247.4
-32922.6
-31615.4
-30327.7
-29061.2
-27817.9
-26599.4
-25407.5
-24244
-23110.6
-22008.8
-20940.4
-19906.9
-18910.2
-17951.8
-17033.4
-16156.7
-15323.7
-14536.1
-13795.7
-13104.8
-12465.4
-11879.6
-11352.8
-10890.5
-10490
-10149.6
-9875.34
-9675.89
-9557.83
-9524.79
-9583.12
-9737.68
-10004.2
-10371.5
-10957.1
-98228.9
-91212.3
-91096.6
-90842.6
-90687.1
-90604.5
-90552.2
-90506.2
-90456.9
-90399.1
-90330.1
-90247.9
-90150.8
-90037.1
-89905
-89752.7
-89578.6
-89380.7
-89157.5
-88908.4
-88630.5
-88317.7
-87976.9
-87602.4
-87193.7
-86749.8
-86269.9
-85753.2
-85198.7
-84605.3
-83973.7
-83304
-82595.3
-81847.4
-81060.3
-80234.4
-79369.8
-78466.8
-77526.1
-76545.6
-75532.5
-74483
-73397.2
-72278.7
-71127.6
-69943
-68728.1
-67484.3
-66212.9
-64915.2
-63593
-62247.9
-60881.6
-59495.9
-58092.8
-56674.2
-55242
-53798.3
-52345.2
-50884.7
-49418.9
-47950.1
-46480.4
-45011.9
-43546.8
-42087.3
-40635.4
-39193.4
-37763.2
-36347
-34946.8
-33564.6
-32202.4
-30862.1
-29545.5
-28254.7
-26991.2
-25757.1
-24554
-23383.7
-22247.9
-21148.5
-20087
-19065.4
-18085.5
-17148.9
-16257.8
-15413.8
-14619.3
-13876.2
-13186.8
-12554.1
-11984.7
-11481.8
-11040.3
-10661.2
-10352.8
-10124.4
-9980.06
-9923.87
-9962.5
-10100.9
-10354.5
-10712.6
-11291.9
-104259
-97145.5
-97030.3
-96762.5
-96592.3
-96494.8
-96424.3
-96356.4
-96281.8
-96195.5
-96095.2
-95979.1
-95845.8
-95693.6
-95521.1
-95326.8
-95108.8
-94865.7
-94596
-94297.4
-93974.6
-93611.2
-93220.7
-92794.4
-92333.7
-91837.2
-91303.9
-90733.2
-90124.1
-89476.1
-88788.7
-88062.1
-87295.9
-86489.7
-85643.9
-84758.4
-83833.1
-82868.5
-81865.1
-80822.4
-79746
-78630.9
-77480
-76294.3
-75074.5
-73822
-72538.1
-71224.4
-69882.1
-68512.9
-67118.4
-65700.2
-64260.3
-62800.4
-61322.6
-59828.6
-58320.7
-56800.9
-55271.3
-53734.1
-52191.4
-50645.5
-49098.6
-47552.8
-46010.5
-44473.9
-42945.1
-41426.3
-39919.6
-38427.4
-36951.5
-35494.1
-34057.3
-32643
-31253.2
-29889.9
-28554.9
-27250.2
-25977.5
-24738.7
-23535.7
-22370.3
-21244.3
-20159.6
-19118.1
-18121.8
-17172.5
-16272.4
-15423.6
-14628.4
-13889
-13210.1
-12599
-12053.8
-11569.6
-11152.1
-10810.8
-10552.9
-10381.5
-10301.6
-10319.9
-10441.2
-10681.5
-11029.2
-11601.6
-110301
-103088
-102973
-102693
-102509
-102399
-102312
-102225
-102127
-102015
-101886
-101739
-101572
-101384
-101173
-100939
-100679
-100392
-100077
-99731.4
-99364.7
-98954.5
-98508.2
-98031.5
-97518.7
-96969
-96381.6
-95755.8
-95090.8
-94386.5
-93642.2
-92857.1
-92031.6
-91165.3
-90258.3
-89310.9
-88323.1
-87295.2
-86226.6
-85120.2
-83975.4
-82793.5
-81576
-80321.6
-79031.6
-77708.6
-76353.5
-74967.8
-73552.8
-72110.2
-70641.7
-69148.9
-67633.8
-66098.2
-64544.1
-62973.6
-61388.7
-59791.6
-58184.4
-56569.5
-54948.9
-53325.1
-51700.2
-50076.5
-48456.4
-46842.1
-45235.8
-43639.9
-42056.4
-40487.8
-38936
-37403.3
-35891.7
-34403.3
-32940.2
-31504.4
-30097.8
-28722.5
-27380.2
-26073
-24802.8
-23571.5
-22381.1
-21233.4
-20130.5
-19074.4
-18067.1
-17110.8
-16208
-15360.4
-14571.4
-13847.4
-13193.7
-12604.5
-12077.7
-11622.1
-11248.3
-10960.2
-10761.3
-10657.1
-10654.5
-10758.2
-10984.1
-11320.9
-11885.2
-116362
-109048
-108935
-108642
-108447
-108325
-108224
-108118
-108000
-107863
-107708
-107531
-107332
-107110
-106864
-106591
-106291
-105962
-105603
-105215
-104794
-104334
-103842
-103314
-102749
-102145
-101503
-100821
-100099
-99337
-98533.6
-97688.5
-96801.9
-95873.7
-94903.8
-93892.2
-92839.4
-91745.8
-90609.6
-89437.7
-88225
-86973.3
-85684.5
-84359.5
-82998
-81602.4
-80174.2
-78714.5
-77224.9
-75707.1
-74162.7
-72593.6
-71001.7
-69388.8
-67757.1
-66108.6
-64445.5
-62769.9
-61084.1
-59390.4
-57691
-55988.4
-54284.7
-52582.4
-50883.8
-49191.3
-47507.1
-45833.5
-44172.9
-42527.5
-40899.6
-39291.3
-37704.8
-36142.2
-34605.7
-33097.3
-31619.1
-30173.2
-28761.4
-27385.9
-26048.5
-24751.4
-23496.5
-22285.9
-21121.7
-20005.9
-18940.7
-17928.3
-16971.3
-16071.4
-15233.2
-14465.5
-13767.6
-13132.2
-12563.3
-12071.2
-11664.4
-11345.4
-11118.6
-10989.6
-10965.5
-11051
-11261.8
-11586.9
-12142.3
-122451
-115035
-114922
-114618
-114412
-114280
-114165
-114043
-113905
-113746
-113565
-113361
-113132
-112877
-112596
-112286
-111947
-111577
-111175
-110739
-110275
-109764
-109224
-108643
-108025
-107367
-106669
-105930
-105150
-104328
-103463
-102556
-101607
-100615
-99580.4
-98503.1
-97383.3
-96220.5
-95016.9
-93775.4
-92491.8
-91168.3
-89807.3
-88408.7
-86973.5
-85503.5
-83999.9
-82464.3
-80898.2
-79303.3
-77681.3
-76034.1
-74363.7
-72672
-70961.2
-69233.3
-67490.6
-65735.3
-63969.8
-62196.3
-60417.1
-58634.8
-56851.5
-55069.9
-53292.2
-51520.8
-49758.1
-48006.5
-46268.3
-44545.9
-42841.5
-41157.4
-39495.8
-37858.9
-36248.9
-34667.9
-33118.1
-31601.5
-30120.2
-28676.3
-27271.9
-25909.1
-24589.8
-23316.4
-22090.9
-20915.4
-19792.3
-18724
-17712.7
-16760.7
-15874.7
-15062.6
-14318.5
-13637
-13026.6
-12498.6
-12058
-11707.6
-11452.5
-11298.3
-11252.2
-11318.9
-11513.9
-11826.5
-12372
-128575
-121055
-120944
-120628
-120411
-120270
-120143
-120006
-119849
-119668
-119463
-119232
-118974
-118688
-118372
-118026
-117649
-117238
-116792
-116311
-115806
-115249
-114651
-114019
-113347
-112634
-111879
-111082
-110242
-109359
-108432
-107462
-106448
-105390
-104288
-103143
-101954
-100720
-99447.9
-98133.1
-96776.6
-95379.6
-93943.3
-92469.3
-90958.3
-89411.5
-87830.6
-86217
-84572.4
-82898.4
-81197
-79470
-77719.5
-75947.4
-74155.9
-72347.2
-70523.6
-68687.4
-66840.9
-64986.5
-63126.6
-61263.6
-59400
-57538.2
-55680.7
-53829.9
-51988.2
-50158.1
-48342
-46542.1
-44761
-43000.8
-41263.9
-39552.6
-37868.9
-36215.3
-34593.8
-33006.6
-31455.8
-29943.6
-28472.2
-27043.6
-25660.1
-24323.9
-23037.2
-21802.1
-20621.2
-19497
-18431.2
-17427.8
-16495.1
-15637.1
-14845.1
-14117.9
-13467.1
-12903.1
-12428.2
-12046.1
-11762.2
-11582.3
-11513.6
-11561.1
-11739.4
-12039
-12573.9
-134740
-127116
-127005
-126679
-126453
-126303
-126164
-126012
-125837
-125636
-125407
-125150
-124863
-124547
-124198
-123816
-123401
-122949
-122462
-121939
-121377
-120771
-120128
-119443
-118716
-117947
-117134
-116277
-115376
-114431
-113440
-112405
-111324
-110198
-109027
-107812
-106551
-105247
-103901
-102510
-101078
-99606.6
-98094.1
-96541.8
-94952.2
-93326.4
-91666
-89972.3
-88247.1
-86492.2
-84709.5
-82900.9
-81068.5
-79214.3
-77340.7
-75449.8
-73543.9
-71625.5
-69696.8
-67760.4
-65818.7
-63874.2
-61929.4
-59986.7
-58048.7
-56117.8
-54196.6
-52287.5
-50393
-48515.4
-46657.3
-44820.8
-43008.4
-41222.4
-39465.1
-37738.7
-36045.5
-34387.6
-32767.4
-31186.9
-29648.5
-28154.3
-26706.6
-25307.7
-23959.8
-22665.2
-21426.6
-20246.4
-19126.2
-18071.9
-17093.6
-16188.2
-15346.4
-14574.4
-13884.5
-13283.8
-12774.1
-12359.9
-12046.9
-11840.9
-11749.1
-11776.7
-11937.8
-12223.6
-12747.2
-140953
-133224
-133114
-132776
-132542
-132383
-132234
-132067
-131875
-131654
-131402
-131119
-130804
-130457
-130075
-129658
-129205
-128713
-128183
-127613
-127008
-126349
-125656
-124917
-124135
-123308
-122435
-121518
-120554
-119544
-118488
-117385
-116236
-115041
-113798
-112510
-111175
-109798
-108375
-106909
-105399
-103849
-102257
-100625
-98954.7
-97247.8
-95505.6
-93729.7
-91922
-90084.2
-88218.3
-86326.2
-84410.2
-82472.4
-80515
-78540.4
-76550.8
-74548.9
-72536.9
-70517.4
-68492.8
-66465.8
-64438.9
-62414.5
-60395.4
-58383.8
-56382.6
-54394
-52420.7
-50465
-48529.5
-46616.5
-44728.4
-42867.6
-41036.5
-39237.2
-37472.2
-35743.7
-34054
-32405.3
-30799.9
-29240.2
-27728.4
-26266.8
-24857.7
-23503.7
-22207.5
-20971.2
-19796.9
-18693
-17668.3
-16713.7
-15822.3
-15006.2
-14277.7
-13639.6
-13094.9
-12648.4
-12305.8
-12073.2
-11957.7
-11964.6
-12108.3
-12379.7
-12891.1
-147220
-139385
-139276
-138928
-138684
-138519
-138358
-138178
-137968
-137727
-137452
-137144
-136801
-136423
-136009
-135556
-135064
-134532
-133958
-133341
-132696
-131989
-131235
-130442
-129603
-128717
-127784
-126804
-125776
-124700
-123576
-122404
-121184
-119917
-118601
-117237
-115827
-114373
-112873
-111328
-109738
-108106
-106433
-104718
-102965
-101175
-99349.1
-97488.9
-95596.5
-93673.8
-91722.7
-89745.4
-87744
-85720.8
-83678.1
-81618.2
-79543.6
-77456.8
-75360.3
-73256.5
-71148.1
-69037.7
-66927.8
-64821
-62719.9
-60627.1
-58545.1
-56476.6
-54424.1
-52389.9
-50376.8
-48387
-46423
-44487.3
-42582.2
-40710.1
-38873.2
-37074.1
-35314.9
-33598
-31925.7
-30300.4
-28724.6
-27200.3
-25730.1
-24316.9
-22963
-21670.3
-20443
-19290.9
-18218.1
-17211.7
-16271.8
-15413.5
-14645.7
-13969.8
-13389.7
-12910.6
-12538.2
-12278.5
-12138.8
-12124.4
-12250.1
-12506.7
-13005.2
-153545
-145606
-145497
-145139
-144887
-144714
-144543
-144349
-144122
-143860
-143563
-143229
-142858
-142450
-142002
-141514
-140983
-140410
-139792
-139133
-138426
-137670
-136869
-136019
-135122
-134176
-133181
-132137
-131043
-129899
-128705
-127462
-126169
-124827
-123436
-121994
-120508
-118974
-117392
-115765
-114095
-112379
-110621
-108822
-106984
-105108
-103196
-101249
-99270.1
-97260.4
-95222.2
-93157.7
-91069.1
-88958.9
-86829.2
-84682.6
-82521.5
-80348.6
-78166.2
-75977.1
-73783.8
-71588.9
-69395.1
-67205.1
-65021.4
-62846.7
-60683.5
-58534.6
-56402.3
-54289.4
-52198.3
-50131.4
-48091.4
-46080.6
-44101.4
-42156.3
-40247.6
-38377.8
-36549.1
-34764
-33024.9
-31334.2
-29694.3
-28107.4
-26576.3
-25103.9
-23692.2
-22343.5
-21063.8
-19864.4
-18741.4
-17681.9
-16695
-15795.2
-14987.5
-14273.5
-13657.9
-13145.8
-12743.2
-12456
-12291.7
-12255.6
-12362.6
-12603.7
-13088.7
-159935
-151892
-151784
-151415
-151156
-150975
-150794
-150586
-150342
-150060
-149739
-149380
-148981
-148541
-148059
-147534
-146965
-146350
-145688
-144978
-144228
-143414
-142560
-141653
-140695
-139687
-138628
-137518
-136356
-135142
-133876
-132560
-131191
-129773
-128302
-126783
-125216
-123599
-121934
-120223
-118467
-116667
-114822
-112936
-111010
-109046
-107046
-105010
-102942
-100843
-98716
-96562.4
-94384.9
-92185.8
-89967.5
-87732.7
-85483.7
-83223.2
-80953.8
-78678.1
-76398.8
-74118.6
-71840.1
-69566
-67299
-65041.7
-62796.8
-60566.9
-58354.6
-56162.4
-53993.1
-51849
-49732.6
-47646.6
-45593.2
-43575.1
-41594.5
-39653.9
-37755.8
-35902.6
-34096.7
-32340.6
-30636.7
-28987.3
-27395.4
-25863.7
-24394.2
-22989.9
-21659.6
-20411.7
-19235.7
-18124.3
-17091.6
-16150.4
-15302.2
-14550
-13898.5
-13353.3
-12920.1
-12605.1
-12415.7
-12357.4
-12445.2
-12670.3
-13140.8
-166395
-158249
-158142
-157762
-157496
-157308
-157116
-156895
-156634
-156331
-155987
-155601
-155172
-154701
-154185
-153622
-153013
-152354
-151646
-150886
-150093
-149227
-148308
-147342
-146324
-145252
-144127
-142948
-141715
-140429
-139090
-137697
-136252
-134753
-133202
-131601
-129950
-128250
-126500
-124701
-122857
-120968
-119035
-117059
-115044
-112989
-110897
-108771
-106612
-104422
-102203
-99958.6
-97690.3
-95400.6
-93092.2
-90767.5
-88429.1
-86079.7
-83722
-81358.6
-78992.3
-76625.7
-74261.6
-71902.7
-69551.6
-67211.2
-64883.9
-62572.6
-60279.8
-58008.1
-55760.2
-53538.6
-51345.8
-49184.3
-47056.7
-44965.4
-42912.9
-40901.7
-38934.1
-37012.8
-35140.2
-33318.7
-31550.8
-29839.1
-28186.6
-26595.6
-25068.1
-23609
-22229.9
-20931.3
-19699.9
-18538.2
-17461.3
-16478
-15589
-14798.4
-14111
-13532.3
-13068.2
-12725
-12510.1
-12429.2
-12497.2
-12705.7
-13161.2
-172930
-164684
-164576
-164187
-163914
-163719
-163516
-163281
-163002
-162678
-162310
-161897
-161439
-160935
-160383
-159782
-159131
-158429
-157673
-156868
-156008
-155088
-154117
-153091
-152009
-150871
-149678
-148429
-147123
-145763
-144347
-142876
-141350
-139768
-138136
-136451
-134713
-132924
-131086
-129199
-127265
-125284
-123259
-121191
-119083
-116935
-114751
-112531
-110278
-107995
-105683
-103346
-100984
-98602.5
-96202.1
-93786
-91356.8
-88917.2
-86469.9
-84017.7
-81563.2
-79109.3
-76658.8
-74214.2
-71778.4
-69354.1
-66944
-64550.8
-62177.1
-59825.5
-57498.8
-55199.4
-52929.9
-50693
-48491
-46326.5
-44202
-42120.1
-40083.1
-38093.8
-36154.5
-34267.7
-32435.9
-30662
-28948.9
-27298.7
-25713.5
-24200.9
-22772.4
-21421
-20134.7
-18923.7
-17803.2
-16777.1
-15847.3
-15018
-14294.4
-13682
-13186.7
-12815
-12574.2
-12470.3
-12518
-12709.4
-13149.4
-179546
-171203
-171094
-170695
-170416
-170213
-170000
-169750
-169453
-169108
-168714
-168273
-167785
-167247
-166658
-166018
-165324
-164575
-163772
-162911
-162004
-161021
-159992
-158901
-157754