/*--------------------------------*- C++ -*----------------------------------*\
  =========                 |
  \\      /  F ield         | OpenFOAM: The Open Source CFD Toolbox
   \\    /   O peration     | Website:  https://openfoam.org
    \\  /    A nd           | Version:  6
     \\/     M anipulation  |
\*---------------------------------------------------------------------------*/
FoamFile
{
    version     2.0;
    format      ascii;
    class       volVectorField;
    location    "0";
    object      U;
}
// * * * * * * * * * * * * * * * * * * * * * * * * * * * * * * * * * * * * * //

dimensions      [0 1 -1 0 0 0 0];

internalField   nonuniform List<vector> 
18060
(
(1481.74 127080 0)
(1456.15 55368.4 0)
(-234.62 31333 -3.28385e-23)
(206.997 27652.9 -2.38647e-24)
(676.547 24455.1 0)
(1266.18 22686 4.79755e-25)
(2164.91 21261.5 -1.26032e-24)
(3176.7 19646.7 0)
(4491.03 19082.7 3.38797e-24)
(6156.71 17630.5 2.47506e-24)
(7836.87 16077.5 0)
(9124.02 13461.9 0)
(9948.75 11811.1 -2.00417e-24)
(10712.6 9988.32 0)
(11341.1 8533.92 1.59736e-24)
(11886.9 6967.63 0)
(12256.1 5630.35 0)
(12505.3 4396.06 0)
(12623.6 3351.14 0)
(12638.7 2472.02 0)
(12557.8 1771.82 0)
(12393.9 1246.11 0)
(12154.6 894.516 0)
(11848.2 714.569 0)
(11480.5 704.125 0)
(11056.4 860.755 0)
(10581.9 1181.33 0)
(10060.6 1663.04 0)
(9496.48 2302.63 0)
(8892.94 3096.55 0)
(8253 4041.04 0)
(7579.34 5132.15 0)
(6874.35 6365.78 0)
(6140.11 7737.74 -7.2052e-25)
(5378.45 9243.75 -7.56475e-25)
(4590.93 10879.5 0)
(3778.87 12640.5 0)
(2943.41 14522.4 0)
(2085.51 16520.9 8.82515e-25)
(1205.95 18631.4 9.11101e-25)
(305.392 20849.6 0)
(-615.617 23170.8 0)
(-1556.63 25590.7 9.93207e-25)
(-2517.27 28104.7 3.88572e-42)
(-3497.22 30708.1 -1.04608e-24)
(-4496.18 33396.3 0)
(-5513.91 36164.4 0)
(-6550.13 39007.6 0)
(-7604.58 41920.9 0)
(-8677.02 44899 0)
(-9766.84 47936.6 0)
(-10874.3 51028.7 0)
(-11999.2 54169.9 0)
(-13140.9 57354.1 0)
(-14299 60575.6 0)
(-15473 63828.3 0)
(-16662.1 67106.1 0)
(-17865.8 70402.7 0)
(-19083.3 73711.5 0)
(-20313.7 77026.2 0)
(-21556.3 80339.9 0)
(-22809.9 83646 0)
(-24073.4 86937.6 0)
(-25345.7 90207.9 -1.42299e-24)
(-26625.5 93449.9 -1.42689e-24)
(-27911.3 96656.7 0)
(-29201.7 99821.5 0)
(-30495.2 102937 0)
(-31790 105998 -1.41179e-24)
(-33084.4 108996 -1.39938e-24)
(-34376.6 111925 0)
(-35664.6 114780 0)
(-36946.5 117554 0)
(-38220.3 120241 0)
(-39483.7 122836 0)
(-40734.7 125334 0)
(-41971.1 127730 0)
(-43190.7 130020 0)
(-44391.2 132200 0)
(-45570.3 134267 0)
(-46725.9 136218 0)
(-47855.7 138051 0)
(-48957.4 139764 0)
(-50028.9 141357 0)
(-51067.9 142829 0)
(-52072.4 144182 0)
(-53040.3 145416 0)
(-53969.5 146533 0)
(-54858.1 147538 0)
(-55704.2 148433 0)
(-56505.9 149223 0)
(-57261.5 149915 0)
(-57969.3 150514 0)
(-58627.9 151029 0)
(-59235.6 151467 0)
(-59791 151838 0)
(-60293.2 152152 0)
(-60741 152418 0)
(-61133.5 152647 0)
(-61470.1 152849 0)
(-61750.7 153034 0)
(-61975.6 153206 0)
(-62146.1 153371 0)
(-62262.9 153520 0)
(-62336.2 153636 0)
(12760.9 96307.6 0)
(26075.5 58143.5 0)
(21635 37886.1 -5.09715e-23)
(16632.1 31167 -5.81194e-24)
(13916.8 26215.1 0)
(12396.2 23242.6 9.3735e-25)
(11535.3 20770.1 1.12053e-24)
(11020.5 18853.5 0)
(10910.7 17226.9 -1.5911e-24)
(11181.2 15699.4 2.17343e-25)
(11615.5 13988.6 0)
(12005.9 12255.2 0)
(12314.5 10619 2.61349e-25)
(12597.8 9121.25 -5.62294e-39)
(12853.5 7713.92 3.00573e-25)
(13058.5 6415.67 0)
(13191.2 5238.97 0)
(13247.3 4202.58 0)
(13225.6 3313.78 0)
(13129.2 2579.56 0)
(12962 2003.12 0)
(12728.3 1586.37 0)
(12432.9 1329.55 0)
(12079.9 1232.72 0)
(11673.2 1294.9 0)
(11217.6 1514.6 0)
(10716.3 1890.27 0)
(10172.3 2420.01 0)
(9589.02 3101.27 0)
(8969.2 3931.25 0)
(8315.46 4906.83 0)
(7630.11 6024.69 0)
(6915.22 7281.28 0)
(6172.59 8672.91 1.21498e-24)
(5403.81 10195.7 1.23869e-24)
(4610.23 11845.8 0)
(3793.02 13619.2 0)
(2953.15 15511.6 0)
(2091.45 17519.1 -1.32577e-24)
(1208.6 19637.3 -2.24224e-24)
(305.151 21862 -9.09344e-25)
(-618.42 24188.9 0)
(-1561.74 26613.6 -1.39861e-24)
(-2524.48 29131.7 -9.43077e-25)
(-3506.38 31738.5 4.76554e-25)
(-4507.19 34429.5 0)
(-5526.68 37199.9 0)
(-6564.61 40044.8 0)
(-7620.71 42959 -9.88513e-25)
(-8694.28 45937.6 -9.94037e-25)
(-9786 48975.5 0)
(-10895.6 52067.7 0)
(-12022.2 55208.1 0)
(-13165.7 58391 0)
(-14325.6 61610.5 0)
(-15501.3 64860.6 0)
(-16692.2 68135.1 0)
(-17897.7 71427.7 0)
(-19117.1 74731.8 0)
(-20349.4 78040.9 0)
(-21593.8 81348.3 0)
(-22849.2 84647.2 0)
(-24114.6 87930.7 0)
(-25388.7 91192 5.39056e-25)
(-26670.2 94424 1.62816e-24)
(-27957.8 97619.9 1.09344e-24)
(-29250 100773 0)
(-30545.1 103876 0)
(-31841.4 106922 5.61263e-25)
(-33137.3 109906 5.67143e-25)
(-34430.9 112819 0)
(-35720.2 115657 0)
(-37003.3 118413 0)
(-38278.1 121081 0)
(-39542.5 123656 0)
(-40794.2 126133 0)
(-42031.3 128507 0)
(-43251.3 130774 0)
(-44452.2 132930 0)
(-45631.5 134973 0)
(-46787.1 136898 0)
(-47916.8 138706 0)
(-49018.2 140392 0)
(-50089.2 141958 0)
(-51127.7 143403 0)
(-52131.5 144727 0)
(-53098.5 145933 0)
(-54026.8 147022 0)
(-54914.3 147997 0)
(-55759.2 148863 0)
(-56559.6 149624 0)
(-57313.8 150286 0)
(-58020.1 150856 0)
(-58677.1 151341 0)
(-59283.2 151750 0)
(-59836.9 152092 0)
(-60337.3 152377 0)
(-60783.3 152614 0)
(-61173.8 152815 0)
(-61508.4 152990 0)
(-61786.9 153148 0)
(-62009.6 153295 2.69249e-24)
(-62177.8 153435 2.80329e-24)
(-62292.1 153562 0)
(-62366.8 153659 0)
(5848.36 64306.4 0)
(14554.5 53390 0)
(16487.3 41915.6 -6.07027e-24)
(15722.7 34804.9 -4.0214e-25)
(14758.1 29291.6 0)
(13936.9 25343.9 0)
(13353.7 22224.5 1.12512e-25)
(12976.9 19696.8 9.22324e-25)
(12814 17484 1.50695e-25)
(12834.5 15526.4 3.14115e-25)
(12972.3 13683.9 -4.97184e-25)
(13146.6 11952.8 -8.33673e-25)
(13318.8 10327.5 -3.11925e-25)
(13473.9 8837.62 1.40744e-24)
(13599.6 7478.52 1.66552e-24)
(13682.9 6256.83 0)
(13712.1 5173.82 0)
(13681.3 4235.58 0)
(13588.2 3444.87 0)
(13433 2804.59 -1.13351e-24)
(13216.8 2316.42 -1.22954e-24)
(12942.6 1981.04 0)
(12613.1 1798.69 0)
(12231.7 1769.12 0)
(11802.5 1891.81 0)
(11327.1 2166.33 0)
(10808.9 2591.29 0)
(10250.5 3165.07 0)
(9655 3885.5 0)
(9024.66 4750.24 1.98967e-24)
(8361.84 5756.64 2.06865e-24)
(7668.62 6901.79 0)
(6946.83 8182.56 0)
(6198.12 9595.63 1.15048e-24)
(5423.92 11137.5 1.18837e-24)
(4625.47 12804.6 0)
(3803.81 14593 0)
(2959.87 16499.1 0)
(2094.36 18518.8 -1.33571e-24)
(1207.93 20648 -2.74285e-24)
(301.078 22882.8 -1.4067e-24)
(-625.769 25218.9 0)
(-1572.26 27651.9 -1.47586e-24)
(-2538.12 30177.6 -1.50983e-24)
(-3523.08 32791.4 0)
(-4526.92 35488.7 0)
(-5549.44 38264.9 0)
(-6590.37 41114.9 0)
(-7649.34 44033.6 -1.67413e-24)
(-8726.99 47016.3 -1.70222e-24)
(-9822.06 50058.1 0)
(-10934.8 53153.3 0)
(-12064.8 56296.1 0)
(-13211.7 59480.7 0)
(-14375.1 62701.2 0)
(-15554.3 65951.6 0)
(-16748.8 69225.6 0)
(-17957.9 72516.7 0)
(-19180.9 75818.6 0)
(-20416.9 79124.6 0)
(-21665 82427.9 0)
(-22924.1 85721.6 0)
(-24193.2 88999 -4.15503e-24)
(-25470.9 92253 -4.20365e-24)
(-26756 95476.7 2.12546e-24)
(-28047.1 98663.1 2.14841e-24)
(-29342.6 101805 0)
(-30641 104896 0)
(-31940.4 107930 0)
(-33239.3 110899 0)
(-34535.6 113797 0)
(-35827.5 116618 0)
(-37112.9 119355 0)
(-38389.8 122004 0)
(-39656 124559 0)
(-40909.4 127014 0)
(-42147.7 129365 0)
(-43368.8 131609 0)
(-44570.3 133740 0)
(-45750.1 135757 0)
(-46905.8 137656 0)
(-48035.3 139435 0)
(-49136.3 141093 0)
(-50206.5 142630 0)
(-51244 144044 0)
(-52246.5 145338 0)
(-53211.9 146512 0)
(-54138.4 147570 0)
(-55023.9 148513 0)
(-55866.5 149346 0)
(-56664.5 150075 0)
(-57416.2 150704 0)
(-58119.8 151241 0)
(-58773.8 151693 0)
(-59376.9 152069 0)
(-59927.5 152378 0)
(-60424.6 152630 0)
(-60867.1 152835 5.38692e-24)
(-61254.1 153004 5.44367e-24)
(-61585 153148 0)
(-61859.8 153275 0)
(-62078.6 153393 2.83684e-24)
(-62242.9 153505 8.66425e-24)
(-62353.4 153607 5.90733e-24)
(-62428.9 153684 0)
(3325.01 49857.3 1.44751e-23)
(8952.32 45526.1 1.04881e-23)
(11908 39561.7 3.56416e-24)
(13191.4 34023.6 -7.5804e-25)
(13729.5 29465.3 0)
(13876.2 25712.9 -4.37138e-25)
(13916.1 22564.9 6.7718e-40)
(13946.1 19875.1 8.23223e-25)
(14003 17517.6 8.29714e-25)
(14094.4 15417.8 8.27447e-25)
(14208.9 13512.5 -8.66565e-25)
(14318.6 11768.1 -8.63514e-25)
(14402.8 10171.5 0)
(14452.8 8722.62 1.65516e-24)
(14464.3 7420.24 1.70214e-24)
(14433.8 6263.78 0)
(14356.4 5253.56 0)
(14229.8 4390.33 0)
(14052.4 3674.65 0)
(13824.4 3106.95 -1.15864e-24)
(13546.4 2687.34 -2.45823e-24)
(13220.8 2415.79 -1.29856e-24)
(12848.6 2292.56 -1.36642e-24)
(12431.2 2317.56 -1.43294e-24)
(11970.3 2490.52 0)
(11468.2 2810.72 0)
(10927.4 3276.87 0)
(10349.9 3887.59 0)
(9737.93 4641.05 0)
(9093.57 5535.22 1.83424e-24)
(8418.67 6567.81 1.90111e-24)
(7714.95 7736.24 0)
(6984 9037.7 2.03519e-24)
(6227.22 10469.2 4.20439e-24)
(5445.83 12027.4 2.16912e-24)
(4640.92 13709.1 0)
(3813.39 15510.7 0)
(2964.04 17428.6 0)
(2093.5 19459 -2.43533e-24)
(1202.32 21597.9 -5.00238e-24)
(290.944 23841.5 -2.56672e-24)
(-640.267 26185.7 0)
(-1591.01 28626.2 0)
(-2561.06 31158.7 2.75771e-24)
(-3550.18 33778.7 2.82174e-24)
(-4558.17 36481.9 0)
(-5584.89 39263.2 0)
(-6629.69 42117.9 3.01253e-24)
(-7693.38 45041 3.07263e-24)
(-8774.55 48027.7 0)
(-9874.83 51073.1 0)
(-10992.3 54171.1 0)
(-12127.1 57316.2 0)
(-13278.9 60502.5 0)
(-14447.1 63724 0)
(-15631.3 66974.7 0)
(-16830.9 70248.3 0)
(-18045.2 73538.4 3.62196e-24)
(-19273.4 76838.3 3.67908e-24)
(-20514.6 80141.5 3.73538e-24)
(-21767.8 83441 3.79097e-24)
(-23032.2 86730.2 0)
(-24306.4 90001.9 -3.89962e-24)
(-25589.2 93249.3 -3.95256e-24)
(-26879.3 96465.3 0)
(-28175.2 99642.9 0)
(-29475.5 102775 0)
(-30778.4 105855 0)
(-32082.2 108876 0)
(-33385.2 111832 0)
(-34685.4 114715 0)
(-35980.8 117521 0)
(-37269.4 120241 0)
(-38549.2 122872 0)
(-39818 125408 0)
(-41073.5 127843 0)
(-42313.6 130173 0)
(-43536.1 132394 0)
(-44738.5 134502 -4.62734e-24)
(-45918.8 136494 -4.66496e-24)
(-47074.7 138367 0)
(-48203.9 140121 0)
(-49304.1 141752 0)
(-50373.3 143261 0)
(-51409.2 144647 0)
(-52409.8 145912 0)
(-53373.1 147057 0)
(-54297 148084 0)
(-55179.6 148998 4.97621e-24)
(-56019.2 149800 5.01289e-24)
(-56813.8 150498 0)
(-57561.8 151096 0)
(-58261.6 151602 0)
(-58911.6 152023 0)
(-59510.4 152368 0)
(-60056.7 152646 0)
(-60549.3 152867 0)
(-60987.2 153042 5.36549e-24)
(-61369.4 153181 5.42551e-24)
(-61695.5 153295 0)
(-61965.3 153393 0)
(-62179.1 153483 0)
(-62338.9 153569 5.74892e-24)
(-62445.4 153647 5.86265e-24)
(-62521.1 153706 0)
(2329.82 40765.5 -9.51146e-24)
(6617.8 38695 -6.60201e-24)
(9754.54 35442 5.43752e-24)
(11731.5 31651.5 -7.38082e-39)
(12903.3 28208.7 -1.66229e-24)
(13638.4 25033.9 -1.28667e-24)
(14103.8 22171.7 -1.10469e-24)
(14410.9 19611.7 0)
(14628.1 17317.6 1.03253e-24)
(14790.7 15248.1 1.00581e-24)
(14912.7 13373.9 0)
(14995.7 11672.3 0)
(15038.5 10130.8 0)
(15038.4 8740.78 1.05584e-24)
(14994.5 7498.9 1.0738e-24)
(14904.8 6404.2 3.29135e-24)
(14769.2 5456.29 3.39176e-24)
(14588 4654.68 1.17104e-24)
(14361 3999.28 2.43245e-24)
(14089.1 3489.59 1.26442e-24)
(13773.2 3125.44 2.62813e-24)
(13412.8 2906.87 -6.61465e-39)
(13009.9 2833.68 -2.24701e-39)
(12565.9 2905.5 2.94423e-24)
(12082.3 3121.68 0)
(11561 3481.32 0)
(11003.7 3983.38 0)
(10412.2 4626.54 0)
(9788.29 5409.23 0)
(9133.59 6329.64 0)
(8449.72 7385.69 0)
(7738.13 8575.08 5.78214e-24)
(7000.22 9895.22 5.95815e-24)
(6237.17 11343.4 4.08993e-24)
(5450.07 12916.5 4.20798e-24)
(4639.87 14611.5 0)
(3807.37 16425.1 0)
(2953.28 18353.7 -4.56308e-24)
(2078.17 20393.8 -4.68151e-24)
(1182.51 22541.7 -4.79939e-24)
(266.713 24793.3 -4.91695e-24)
(-668.915 27144.9 -5.03419e-24)
(-1624.12 29592.1 -2.57564e-24)
(-2598.65 32130.8 5.26072e-24)
(-3592.38 34756.6 2.68773e-24)
(-4605.09 37465 0)
(-5636.67 40251 -5.61116e-24)
(-6686.54 43109.8 -2.85769e-24)
(-7755.07 46036.8 1.16416e-23)
(-8842.04 49027.3 8.9117e-24)
(-9947.31 52075.6 0)
(-11070.3 55176 -6.16609e-24)
(-12210.9 58322.9 -3.13727e-24)
(-13368.6 61510.4 3.19141e-24)
(-14542.8 64732.6 0)
(-15733.2 67983.2 0)
(-16939 71256.1 6.70173e-24)
(-18159.5 74544.6 1.02092e-23)
(-19394.1 77842.2 -2.63459e-38)
(-20641.7 81142.2 -3.50592e-24)
(-21901.3 84437.7 -2.62908e-38)
(-23172 87721.9 0)
(-24452.5 90987.7 3.65594e-24)
(-25741.6 94228 7.4095e-24)
(-27037.8 97436 3.75294e-24)
(-28339.7 100605 0)
(-29645.8 103727 -3.84746e-24)
(-30954.2 106795 -1.16814e-23)
(-32263.3 109804 -7.87905e-24)
(-33571.2 112746 0)
(-34876 115615 0)
(-36175.7 118404 8.14636e-24)
(-37468.2 121108 -1.51985e-39)
(-38751.5 123720 -8.31912e-24)
(-40023.2 126237 0)
(-41281.3 128651 0)
(-42523.4 130960 -8.57146e-24)
(-43747.4 133159 -8.65507e-24)
(-44950.9 135243 -4.36871e-24)
(-46131.7 137211 -4.40965e-24)
(-47287.5 139060 0)
(-48416.1 140787 0)
(-49515.4 142392 -4.53251e-24)
(-50583 143873 -4.57353e-24)
(-51617 145232 0)
(-52615.1 146468 0)
(-53575.5 147585 0)
(-54496.2 148583 -9.48499e-24)
(-55375.2 149466 -1.43599e-23)
(-56210.7 150239 -9.66381e-24)
(-57001.1 150906 -4.87851e-24)
(-57744.6 151474 4.92658e-24)
(-58439.5 151950 4.97663e-24)
(-59084.6 152341 5.02842e-24)
(-59678.2 152655 1.01662e-23)
(-60219.2 152903 5.14097e-24)
(-60706.3 153094 0)
(-61138.6 153239 0)
(-61515.1 153349 5.33852e-24)
(-61835.4 153434 5.41453e-24)
(-62099.5 153504 0)
(-62307.8 153567 0)
(-62462.7 153628 0)
(-62565.4 153685 0)
(-62641 153728 0)
(1763.43 33911.5 -1.04109e-23)
(5093.16 32851 -7.99343e-24)
(7828.43 31040.2 0)
(9931.61 28702.5 -3.14045e-24)
(11484.2 26184.7 -2.51119e-24)
(12620.7 23666.9 0)
(13445.9 21249.7 3.61538e-24)
(14043.7 18981.8 3.2091e-24)
(14476.7 16880.9 0)
(14788.1 14947.8 0)
(15005.7 13177.8 0)
(15146.3 11564.2 0)
(15219.8 10101.8 0)
(15233 8786.29 1.24912e-24)
(15189.2 7615.63 1.25008e-24)
(15091.6 6588.71 3.77862e-24)
(14942.8 5705.02 3.82868e-24)
(14744.4 4964.59 1.30019e-24)
(14499.1 4367.09 2.65962e-24)
(14207.8 3912.58 1.3634e-24)
(13872.6 3600.91 4.20889e-24)
(13494.9 3431.79 1.4462e-24)
(13076.4 3404.82 1.49135e-24)
(12618.5 3519.55 4.6161e-24)
(12122.9 3775.35 0)
(11591.2 4171.43 0)
(11024.8 4706.84 0)
(10425.6 5380.34 0)
(9795.04 6190.53 0)
(9134.54 7135.76 3.69424e-24)
(8445.56 8214.17 3.80292e-24)
(7729.41 9423.62 5.869e-24)
(6987.32 10761.8 -1.98615e-38)
(6220.38 12226.1 -4.13502e-24)
(5429.58 13813.7 2.12356e-24)
(4615.76 15521.8 0)
(3779.68 17347.1 0)
(2921.97 19286.4 -4.58638e-24)
(2043.18 21336.1 -2.34983e-24)
(1143.73 23492.7 5.29032e-40)
(223.992 25752.5 -2.46275e-24)
(-715.744 28111.4 -5.0378e-24)
(-1675.23 30565.4 -2.5751e-24)
(-2654.25 33110.4 2.63049e-24)
(-3652.62 35742 0)
(-4670.3 38455.5 0)
(-5706.19 41246.1 -5.59509e-24)
(-6762.03 44109.3 -5.69758e-24)
(-7835.78 47040.4 8.70375e-24)
(-8929.37 50034.5 8.88044e-24)
(-10040.7 53085.8 0)
(-11170.1 56188.6 -6.13297e-24)
(-12317.2 59337.3 -3.11875e-24)
(-13481.5 62526 3.17085e-24)
(-14662.7 65748.8 0)
(-15860 68999.3 0)
(-17073 72271.3 6.64896e-24)
(-18300.7 75558.2 6.74946e-24)
(-19542.6 78853.3 -3.42447e-24)
(-20797.5 82150 -6.94735e-24)
(-22064.5 85441.3 -3.52235e-24)
(-23342.5 88720.2 0)
(-24630.3 91979.8 3.61805e-24)
(-25926.5 95212.9 7.33013e-24)
(-27229.7 98412.6 3.71153e-24)
(-28538.4 101572 0)
(-29850.9 104683 -3.8028e-24)
(-31165.6 107740 -1.15429e-23)
(-32480.7 110736 -7.78389e-24)
(-33794.2 113664 0)
(-35104.2 116518 0)
(-36408.7 119291 8.04403e-24)
(-37705.5 121977 1.12081e-39)
(-38992.5 124571 -8.21324e-24)
(-40267.5 127067 0)
(-41528.3 129461 0)
(-42772.5 131748 -8.46231e-24)
(-43998 133924 -1.70897e-23)
(-45202.5 135985 -8.62701e-24)
(-46383.6 137928 0)
(-47539.2 139751 0)
(-48667 141452 0)
(-49764.8 143030 -4.47935e-24)
(-50830.5 144484 -4.52137e-24)
(-51861.9 145815 0)
(-52857.1 147022 0)
(-53814 148109 0)
(-54730.7 149078 -9.39056e-24)
(-55605.3 149931 -1.89642e-23)
(-56436.1 150674 -1.43643e-23)
(-57221.4 151312 4.83657e-24)
(-57959.5 151849 1.46606e-23)
(-58648.9 152294 4.93904e-24)
(-59288.1 152654 4.99335e-24)
(-59875.7 152939 1.01009e-23)
(-60410.5 153156 5.11082e-24)
(-60891.3 153317 0)
(-61317.2 153432 1.04855e-23)
(-61687.4 153513 1.5948e-23)
(-62001.4 153570 5.3947e-24)
(-62259.3 153612 0)
(-62461.8 153649 0)
(-62611.7 153686 1.13629e-23)
(-62710.8 153722 1.15881e-23)
(-62786.3 153751 0)
(1313.86 28695.7 0)
(3890.06 28149 0)
(6252.5 27048.3 0)
(8301.3 25512.9 0)
(9990.89 23714.7 0)
(11341.1 21797.5 0)
(12400.4 19856.9 1.23137e-23)
(13220.2 17956.4 1.11995e-23)
(13846.2 16135.8 0)
(14315.6 14419.1 0)
(14656.9 12819.8 0)
(14891.3 11345.4 0)
(15034.6 10000 0)
(15098.1 8786.31 0)
(15090.4 7705.96 0)
(15018 6760.39 0)
(14886.1 5950.81 0)
(14698.9 5278.19 0)
(14459.7 4743.2 0)
(14171.7 4346.31 0)
(13837.3 4087.82 0)
(13459.2 3967.83 0)
(13039.6 3986.27 0)
(12580.2 4142.92 0)
(12083.1 4437.3 6.5817e-24)
(11549.9 4868.83 6.76058e-24)
(10982.4 5436.66 0)
(10382 6139.72 0)
(9750.47 6976.76 0)
(9089.09 7946.34 3.7677e-24)
(8399.27 9046.75 3.8703e-24)
(7682.23 10276.1 0)
(6939.16 11632.1 -4.08008e-24)
(6171.08 13112.6 -4.18699e-24)
(5378.92 14714.8 0)
(4563.54 16436 0)
(3725.61 18273.2 0)
(2865.75 20223.4 0)
(1984.47 22283 0)
(1082.2 24448.7 0)
(159.289 26716.7 0)
(-783.961 29083.3 0)
(-1747.3 31544.4 0)
(-2730.53 34095.9 0)
(-3733.49 36733.4 0)
(-4755.88 39452.3 0)
(-5797.6 42247.9 0)
(-6858.87 45115.9 0)
(-7938.79 48051.4 0)
(-9038.33 51049.2 0)
(-10156.2 54103.6 0)
(-11292.4 57208.9 0)
(-12446.6 60359.6 0)
(-13618.2 63549.7 0)
(-14806.9 66773.1 0)
(-16011.9 70023.6 0)
(-17232.7 73294.8 0)
(-18468.4 76580.1 0)
(-19718.2 79872.8 0)
(-20981.2 83166.1 0)
(-22256.3 86453 0)
(-23542.4 89726.6 0)
(-24838.1 92979.8 0)
(-26142.1 96205.5 0)
(-27453 99396.7 0)
(-28769.1 102546 0)
(-30088.8 105647 0)
(-31410.3 108692 0)
(-32731.8 111675 0)
(-34051.3 114588 0)
(-35366.9 117426 0)
(-36676.4 120182 0)
(-37977.8 122851 1.62738e-23)
(-39268.7 125426 1.6442e-23)
(-40547.1 127902 0)
(-41810.6 130275 0)
(-43057 132540 0)
(-44283.9 134692 -8.55214e-24)
(-45489.2 136729 -8.63424e-24)
(-46670.4 138647 0)
(-47825.5 140444 0)
(-48952 142118 -1.77627e-23)
(-50048 143669 -1.79299e-23)
(-51111.2 145095 0)
(-52139.6 146397 0)
(-53131.1 147576 0)
(-54083.9 148633 0)
(-54996 149572 0)
(-55865.6 150395 0)
(-56690.9 151108 0)
(-57470.4 151715 9.67823e-24)
(-58202.4 152222 9.77826e-24)
(-58885.4 152636 0)
(-59518 152966 0)
(-60098.9 153220 2.02081e-23)
(-60626.9 153407 -7.48307e-39)
(-61100.8 153538 -4.14027e-23)
(-61519.8 153624 -1.04855e-23)
(-61883 153675 1.06304e-23)
(-62190.3 153703 2.15714e-23)
(-62441.8 153718 2.19067e-23)
(-62638.4 153729 0)
(-62783.5 153742 1.13363e-23)
(-62879.3 153758 1.15524e-23)
(-62954.5 153774 0)
(1090.72 24590.6 0)
(3248.21 24230.4 0)
(5288.18 23482.8 5.35562e-24)
(7138.96 22425.3 4.98891e-24)
(8759.73 21142.9 0)
(10140.5 19712.1 0)
(11290.1 18200.6 8.34052e-24)
(12229 16664.3 7.82364e-24)
(12981.7 15146.8 3.68504e-24)
(13572.6 13680.6 3.49673e-24)
(14023.6 12288.9 0)
(14353.4 10988.1 0)
(14577.3 9789.87 -3.13969e-24)
(14707.8 8702.45 -3.076e-24)
(14755.1 7731.99 0)
(14727.6 6883.16 0)
(14632 6159.55 0)
(14474.2 5563.96 0)
(14259 5098.42 0)
(13990.8 4764.46 0)
(13672.7 4563.1 0)
(13307.8 4495.13 0)
(12899 4561.05 -3.25561e-24)
(12449 4761.01 -3.32444e-24)
(11959.9 5094.98 6.79857e-24)
(11433.5 5562.67 6.9592e-24)
(10872 6163.44 0)
(10277 6896.47 0)
(9650.03 7760.77 0)
(8992.68 8755.06 0)
(8306.3 9877.87 0)
(7592.16 11127.4 0)
(6851.42 12501.8 0)
(6085.12 13998.9 4.23177e-24)
(5294.17 15616.1 0)
(4479.4 17351 1.09342e-39)
(3641.52 19200.6 4.54486e-24)
(2781.13 21162 0)
(1898.76 23232 -4.75804e-24)
(994.853 25407.2 -9.73071e-24)
(69.7633 27684 -4.97291e-24)
(-876.198 30058.7 0)
(-1842.77 32527.2 0)
(-2829.74 35085.6 0)
(-3837.02 37729.4 5.4044e-24)
(-4863.56 40454 5.51168e-24)
(-5910.89 43255.2 0)
(-6977.51 46128.2 0)
(-8064.17 49068.3 0)
(-9169.84 52070 0)
(-10294.5 55127.7 0)
(-11437.9 58235.9 0)
(-12599.5 61388.7 0)
(-13778.9 64580.3 0)
(-14975.5 67804.5 0)
(-16188.7 71055 -6.55787e-24)
(-17417.8 74325.4 -6.65839e-24)
(-18662.1 77609.1 6.75803e-24)
(-19920.5 80899.3 6.85674e-24)
(-21192.1 84189.2 0)
(-22475.9 87471.7 -7.05128e-24)
(-23770.5 90739.8 -7.14707e-24)
(-25074.6 93986.5 0)
(-26387 97204.6 0)
(-27705.9 100387 0)
(-29029.9 103527 -7.51998e-24)
(-30357.2 106616 -7.61066e-24)
(-31685.9 109649 0)
(-33014.1 112618 0)
(-34340 115517 0)
(-35661.3 118339 0)
(-36976.1 121078 0)
(-38282 123728 1.62701e-23)
(-39577 126284 1.64393e-23)
(-40858.7 128739 0)
(-42124.9 131090 0)
(-43373.2 133332 0)
(-44601.4 135461 0)
(-45807.1 137473 -8.6352e-24)
(-46988.2 139366 -8.71773e-24)
(-48142.3 141137 0)
(-49267.2 142784 -1.77672e-23)
(-50360.9 144307 -1.79347e-23)
(-51421.1 145704 0)
(-52445.9 146977 0)
(-53433.2 148127 0)
(-54381.2 149155 0)
(-55288.1 150063 0)
(-56151.9 150857 0)
(-56971.2 151539 0)
(-57744.2 152115 0)
(-58469.4 152591 0)
(-59145.4 152975 0)
(-59770.8 153274 0)
(-60344.4 153497 2.02105e-23)
(-60864.9 153654 7.19951e-39)
(-61331.5 153755 -4.13978e-23)
(-61743.1 153811 -2.09654e-23)
(-62099.1 153833 -1.0626e-23)
(-62399.3 153833 1.07777e-23)
(-62644.3 153821 2.18805e-23)
(-62835.1 153806 0)
(-62975.6 153796 1.13077e-23)
(-63068.4 153793 1.15087e-23)
(-63143.2 153797 0)
(928.551 21090.6 0)
(2773.98 20854.6 4.85749e-24)
(4552.08 20347.2 9.38834e-24)
(6213.68 19609.3 4.57595e-24)
(7722.83 18683.7 0)
(9060.26 17616.8 0)
(10219.9 16453.8 0)
(11205.4 15237 0)
(12026.7 14004.5 3.79309e-24)
(12696.9 12788.2 3.6431e-24)
(13229.7 11613.7 0)
(13638.7 10501.4 0)
(13936.5 9466.67 -6.66304e-24)
(14134.2 8521.81 -6.54086e-24)
(14241.5 7676.23 0)
(14266.9 6937.37 -3.20194e-24)
(14217.7 6311.1 -6.38178e-24)
(14100.2 5802.03 -3.19393e-24)
(13920 5413.72 0)
(13682 5149.08 0)
(13390.6 5010.21 0)
(13049 4998.71 0)
(12660.6 5115.68 -3.37808e-24)
(12228.4 5361.9 -3.43705e-24)
(11755 5737.88 0)
(11242.6 6243.68 0)
(10693.4 6879.07 0)
(10109.3 7643.55 0)
(9492.03 8536.38 0)
(8843.23 9556.55 -3.90181e-24)
(8164.36 10702.8 1.13168e-39)
(7456.74 11973.6 4.08446e-24)
(6721.54 13367.3 0)
(5959.85 14881.8 3.89337e-40)
(5172.62 16515 -4.37479e-24)
(4360.7 18264.3 -1.17603e-39)
(3524.82 20127.2 4.57613e-24)
(2665.63 22100.7 0)
(1783.67 24181.7 -4.7819e-24)
(879.404 26367.1 -9.77172e-24)
(-46.7709 28653.3 -4.9903e-24)
(-994.516 31036.6 -5.09489e-24)
(-1963.53 33513.1 0)
(-2953.66 36078.9 5.30123e-24)
(-3964.51 38729.4 1.0831e-23)
(-4995.77 41460.3 5.51199e-24)
(-6047.74 44267.4 -5.61409e-24)
(-7119.23 47145.9 0)
(-8212.62 50091 0)
(-9324.82 53096.9 -5.93727e-24)
(-10456.5 56158.2 -6.04035e-24)
(-11607.2 59269.3 0)
(-12776.5 62424.5 -6.24554e-24)
(-13963.8 65617.7 -6.34732e-24)
(-15168.7 68842.8 0)
(-16390.4 72093.5 -8.7672e-41)
(-17628.3 75363.2 -5.17492e-38)
(-18881.4 78645.3 6.74733e-24)
(-20148.8 81933 1.36907e-23)
(-21429.4 85219.3 6.94246e-24)
(-22722.1 88497.3 -7.03869e-24)
(-24025.7 91759.8 -7.134e-24)
(-25338.7 94999.8 0)
(-26659.7 98210 0)
(-27987.1 101383 0)
(-29319.2 104513 -7.50577e-24)
(-30654.2 107591 -7.59634e-24)
(-31990.3 110611 0)
(-33325.5 113566 0)
(-34657.7 116450 0)
(-35984.9 119256 0)
(-37304.9 121977 0)
(-38615.5 124608 0)
(-39914.4 127144 0)
(-41199.3 129579 0)
(-42467.9 131907 0)
(-43718 134126 0)
(-44947.1 136231 0)
(-46153 138218 -8.62402e-24)
(-47333.5 140084 -8.70706e-24)
(-48486.2 141828 0)
(-49609.1 143448 1.77477e-23)
(-50699.9 144943 1.7916e-23)
(-51756.6 146312 0)
(-52777.2 147556 0)
(-53759.8 148675 0)
(-54702.4 149673 0)
(-55603.3 150552 0)
(-56460.9 151314 0)
(-57273.3 151966 1.91561e-23)
(-58039.3 152511 1.93493e-23)
(-58757.1 152957 0)
(-59425.5 153310 0)
(-60043.2 153578 0)
(-60608.9 153771 0)
(-61121.6 153898 0)
(-61580.4 153969 0)
(-61984.3 153995 0)
(-62332.9 153989 -1.0614e-23)
(-62625.9 153960 -2.7397e-40)
(-62864.2 153921 1.09214e-23)
(-63049.4 153881 0)
(-63185.6 153848 1.12732e-23)
(-63275.8 153827 1.14678e-23)
(-63349.9 153820 0)
(803.98 18075 -8.00042e-24)
(2407.23 17920.1 -4.27571e-24)
(3971.37 17570.3 4.20342e-24)
(5461.01 17050.3 0)
(6846.65 16381.6 0)
(8108.01 15591 0)
(9233.45 14707.2 0)
(10218.6 13760.6 -7.8539e-24)
(11064.7 12781.5 -7.62343e-24)
(11776.6 11797.9 0)
(12361.7 10834.1 0)
(12828.3 9910.63 0)
(13185.2 9044.4 -3.45973e-24)
(13441.1 8249.44 -3.40794e-24)
(13604.1 7537.18 0)
(13681.7 6917.01 -3.34618e-24)
(13680.9 6396.55 -1.33415e-23)
(13607.7 5981.9 -6.67297e-24)
(13467.8 5678.05 6.69331e-24)
(13266.4 5488.97 3.36641e-24)
(13007.5 5418.11 1.01977e-23)
(12695.7 5467.88 3.44083e-24)
(12334.2 5640.15 3.48872e-24)
(11925.8 5936.42 1.06244e-23)
(11473.8 6357.58 7.20024e-24)
(10980.8 6904.3 7.32796e-24)
(10449.1 7576.75 0)
(9880.59 8374.86 0)
(9277.35 9298.17 0)
(8641.03 10346 -1.19027e-23)
(7973.2 11517.3 -8.10344e-24)
(7275.28 12810.9 1.65568e-23)
(6548.51 14225.3 1.26876e-23)
(5794.05 15758.6 8.64287e-24)
(5012.9 17408.9 8.83134e-24)
(4205.95 19173.8 -9.02321e-24)
(3373.97 21051 -9.2182e-24)
(2517.66 23037.5 -9.41579e-24)
(1637.59 25130.6 -9.61538e-24)
(734.278 27327 -4.90838e-24)
(-191.854 29623.4 -5.00975e-24)
(-1140.41 32016.2 -1.53347e-23)
(-2111.09 34501.5 -2.08444e-23)
(-3103.73 37075.3 -5.31718e-24)
(-4117.09 39733.2 5.42101e-24)
(-5152.89 42471.1 0)
(-6209.72 45284.6 -1.68511e-23)
(-7287.44 48169.2 -1.1462e-23)
(-8385.68 51119.5 0)
(-9504.18 54129.9 -5.93708e-24)
(-10642.7 57195.1 -6.03835e-24)
(-11800.7 60309.5 0)
(-12977.7 63467.2 -1.87223e-23)
(-14173.2 66662.3 -1.90239e-23)
(-15386.5 69888.5 6.44124e-24)
(-16616.9 73139.3 5.25886e-38)
(-17863.7 76408.4 -6.6392e-24)
(-19125.9 79688.9 0)
(-20402.5 82974 -3.23404e-40)
(-21692.4 86256.7 1.04165e-37)
(-22994.4 89530.1 0)
(-24307.1 92786.8 -1.42417e-23)
(-25629.2 96019.9 -1.44294e-23)
(-26959.1 99222 0)
(-28295 102386 0)
(-29635.4 105505 7.49088e-24)
(-30978.3 108571 -6.47877e-40)
(-32321.8 111578 -2.30119e-23)
(-33664 114519 -1.55185e-23)
(-35002.6 117387 0)
(-36335.6 120176 1.58682e-23)
(-37660.7 122879 3.20816e-23)
(-38975.7 125491 1.62121e-23)
(-40278.3 128006 0)
(-41566.2 130419 0)
(-42837 132726 0)
(-44088.4 134920 -1.68867e-23)
(-45318.1 137000 -1.70537e-23)
(-46523.8 138962 0)
(-47703.2 140802 0)
(-48854.1 142519 0)
(-49974.3 144111 1.77224e-23)
(-51061.8 145577 2.6837e-23)
(-52114.4 146917 9.03076e-24)
(-53130.3 148131 0)
(-54107.4 149221 0)
(-55044.1 150188 0)
(-55938.6 151036 -1.87638e-23)
(-56789.2 151768 -3.7895e-23)
(-57594.3 152389 -9.56784e-24)
(-58352.6 152904 9.66453e-24)
(-59062.5 153318 -2.92928e-23)
(-59722.8 153641 -2.96026e-23)
(-60332.2 153879 0)
(-60889.7 154041 0)
(-61394.2 154138 0)
(-61844.8 154179 2.06581e-23)
(-62240.9 154176 2.09215e-23)
(-62581.7 154140 1.05979e-23)
(-62867.5 154084 2.14872e-23)
(-63099.4 154018 1.08986e-23)
(-63279.1 153954 -2.21276e-23)
(-63411.2 153899 -2.24816e-23)
(-63498.9 153861 0)
(-63572.4 153843 0)
(705.23 15440.4 -7.1333e-24)
(2114.5 15340.4 -7.73312e-24)
(3500.57 15099.5 0)
(4837.32 14734.7 0)
(6101.17 14255.7 0)
(7273.76 13676.9 1.574e-23)
(8342.13 13015.9 2.34618e-23)
(9298.43 12293.6 9.63807e-40)
(10139.1 11533.3 -7.56453e-24)
(10864.1 10758.1 0)
(11475.9 9989.36 -7.29211e-24)
(11978.6 9246.02 -7.1767e-24)
(12377.7 8544.72 0)
(12679.1 7899.75 0)
(12888.8 7323.35 0)
(13012.8 6825.9 0)
(13057 6416.09 -1.37913e-23)
(13027 6101.1 -1.03485e-23)
(12928.1 5886.93 6.91831e-24)
(12764.9 5778.78 3.47761e-24)
(12541.7 5780.84 1.05176e-23)
(12262.4 5896.4 3.54151e-24)
(11931 6128.18 -3.58512e-24)
(11550.8 6478.19 3.6352e-24)
(11124.1 6948.08 7.38106e-24)
(10654.4 7538.79 7.49587e-24)
(10143.7 8251.16 0)
(9594.42 9085.46 0)
(9008.54 10041.6 0)
(8387.84 11119.3 -8.06133e-24)
(7733.99 12317.7 -8.22063e-24)
(7048.49 13635.9 2.09662e-23)
(6332.67 15072.7 2.13941e-23)
(5587.73 16626.5 1.31006e-23)
(4814.75 18295.4 1.33713e-23)
(4014.66 20077.4 -9.09836e-24)
(3188.34 21970.1 -9.28581e-24)
(2336.46 23971 -9.47666e-24)
(1459.69 26077.3 -9.6697e-24)
(558.576 28285.8 -4.9324e-24)
(-366.389 30593.5 -5.03113e-24)
(-1314.79 32996.6 -1.02606e-23)
(-2286.31 35491.5 -2.09052e-23)
(-3280.72 38074.1 -1.06729e-23)
(-4296.86 40740.1 0)
(-5335.81 43485.9 0)
(-6396.29 46306.5 -1.1258e-23)
(-7479.46 49197.5 -1.14704e-23)
(-8583.29 52153.4 0)
(-9708.07 55168.9 0)
(-10853.3 58238.4 0)
(-12018.6 61356.4 -1.2276e-23)
(-13203.3 64517 -2.49509e-23)
(-14407 67714.1 -1.26739e-23)
(-15628.8 70941.5 6.43574e-24)
(-16868 74192.7 -6.53395e-24)
(-18123.8 77461.2 -1.32631e-23)
(-19395.3 80740.1 0)
(-20681.2 84022.6 -6.82481e-24)
(-21980.5 87301.7 -6.92037e-24)
(-23291.8 90570.2 0)
(-24613.8 93821 -1.42184e-23)
(-25945 97046.9 -2.88098e-23)
(-27283.8 100241 -1.45897e-23)
(-28628.4 103395 1.4773e-23)
(-29977.1 106503 3.73865e-23)
(-31327.8 109557 1.51346e-23)
(-32678.7 112551 -2.29695e-23)
(-34027.7 115477 -1.54899e-23)
(-35372.6 118329 0)
(-36711.2 121100 1.58392e-23)
(-38041.3 123785 3.20235e-23)
(-39360.5 126377 1.61831e-23)
(-40666.5 128871 1.63534e-23)
(-41957 131262 1.65226e-23)
(-43229.6 133545 0)
(-44482 135715 -1.68589e-23)
(-45711.8 137770 -1.70264e-23)
(-46916.8 139705 0)
(-48094.6 141519 0)
(-49243.1 143208 0)
(-50360.2 144771 0)
(-51443.7 146208 8.93335e-24)
(-52491.7 147519 9.01872e-24)
(-53502.2 148703 -1.82099e-23)
(-54473.4 149763 -1.83844e-23)
(-55403.5 150700 0)
(-56290.9 151517 -1.87417e-23)
(-57133.9 152218 -3.78512e-23)
(-57931.2 152808 -2.86709e-23)
(-58681.2 153292 -9.65363e-24)
(-59382.7 153676 -2.92598e-23)
(-60034.5 153967 -2.95688e-23)
(-60635.3 154175 0)
(-61184.1 154307 0)
(-61680.2 154373 0)
(-62122.5 154385 2.06338e-23)
(-62510.2 154352 2.08908e-23)
(-62843.3 154288 1.05808e-23)
(-63122 154204 1.07232e-23)
(-63347.4 154113 2.17496e-23)
(-63521.9 154024 2.20699e-23)
(-63650.1 153949 1.90757e-37)
(-63735.6 153894 -2.27541e-23)
(-63808.5 153865 -2.36936e-23)
(624.466 13115.1 0)
(1873.8 13054.1 0)
(3109.53 12891.6 0)
(4311.59 12641.3 0)
(5461.22 12305.7 0)
(6542.64 11891.8 1.50704e-23)
(7543.44 11409.2 3.02681e-23)
(8454.67 10872.1 1.5056e-23)
(9270.53 10298.1 0)
(9988.03 9705.63 0)
(10606.5 9112.64 -7.30048e-24)
(11127.1 8535.91 -7.22992e-24)
(11552.3 7990.7 0)
(11885.6 7490.72 0)
(12131.1 7048.09 0)
(12293.1 6673.35 0)
(12376.3 6375.56 -7.06647e-24)
(12385.7 6162.57 -7.07545e-24)
(12324.9 6041.38 0)
(12198.7 6017.73 0)
(12010.8 6096.41 0)
(11765.2 6281.46 0)
(11465.3 6576.29 -7.33785e-24)
(11114.3 6983.63 -7.43405e-24)
(10715.5 7505.42 0)
(10270.9 8143.4 0)
(9783.69 8898.59 0)
(9256.01 9771.78 0)
(8689.73 10763.4 0)
(8086.95 11873.2 0)
(7449.28 13101 0)
(6778.31 14446 -4.08206e-39)