/*--------------------------------*- C++ -*----------------------------------*\
| =========                 |                                                 |
| \\      /  F ield         | OpenFOAM: The Open Source CFD Toolbox           |
|  \\    /   O peration     | Version:  2.4.x                                 |
|   \\  /    A nd           | Web:      www.OpenFOAM.org                      |
|    \\/     M anipulation  |                                                 |
\*---------------------------------------------------------------------------*/
FoamFile
{
    version     2.0;
    format      ascii;
    class       volScalarField;
    location    "0.001";
    object      alpha1;
}
// * * * * * * * * * * * * * * * * * * * * * * * * * * * * * * * * * * * * * //

dimensions      [0 0 0 0 0 0 0];

internalField   nonuniform List<scalar> 
256
(
1.0012
1.004
1
0.469944
1.28936e-08
5.00684e-15
-9.80366e-22
-3.94665e-24
-4.7931e-25
-5.20257e-26
-5.04979e-27
-4.38728e-28
-3.41681e-29
-2.38991e-30
-1.50471e-31
-8.54864e-33
-4.39363e-34
-2.04812e-35
-8.68167e-37
-3.35465e-38
-1.18449e-39
-3.8305e-41
-1.13701e-42
-3.10429e-44
-7.81083e-46
-1.81457e-47
-3.89898e-49
-7.76145e-51
-1.43358e-52
-2.46052e-54
-3.92964e-56
-5.84743e-58
-8.11702e-60
-1.05232e-61
-1.27554e-63
-1.44703e-65
-1.53788e-67
-1.53259e-69
-1.43337e-71
-1.25914e-73
-1.03969e-75
-8.07536e-78
-5.90388e-80
-4.06543e-82
-2.63831e-84
-1.6145e-86
-9.32108e-89
-5.07949e-91
-2.61393e-93
-1.27076e-95
-5.83848e-98
-2.53599e-100
-1.04172e-102
-4.04786e-105
-1.48829e-107
-5.17883e-110
-1.70586e-112
-5.31978e-115
-1.57087e-117
-4.39268e-120
-1.16331e-122
-2.91778e-125
-6.93124e-128
-1.55942e-130
-3.32267e-133
-6.70422e-136
-1.28085e-138
-2.3167e-141
-3.96631e-144
-6.42619e-147
-9.85049e-150
-1.42814e-152
-1.95771e-155
-2.53642e-158
-3.10461e-161
-3.58837e-164
-3.91439e-167
-4.02768e-170
-3.90652e-173
-3.56916e-176
-3.06934e-179
-2.48233e-182
-1.8863e-185
-1.34541e-188
-8.99731e-192
-5.6345e-195
-3.29995e-198
-1.80482e-201
-9.20325e-205
-4.36781e-208
-1.92558e-211
-7.86868e-215
-2.97342e-218
-1.03629e-221
-3.32126e-225
-9.75655e-229
-2.61736e-232
-6.38563e-236
-1.41019e-239
-2.8039e-243
-4.98902e-247
-7.88855e-251
-1.09957e-254
-1.33871e-258
-1.40872e-262
-1.26623e-266
-9.59899e-271
-6.06083e-275
-3.15621e-279
-1.35178e-283
-4.80121e-288
-1.43749e-292
-3.67124e-297
-8.0385e-302
-1.51112e-306
-2.43722e-311
-3.39369e-316
-5.48753e-317
-1.73036e-317
-0
0
0
0
0
0
0
0
0
0
0
0
0
0
0
0
0
0
0
0
0
0
0
0
0
0
0
0
0
0
0
0
0
0
0
0
0
0
0
0
0
0
0
0
0
0
0
0
0
0
0
0
0
0
0
0
0
0
0
0
0
0
0
0
0
0
0
0
0
0
0
0
0
0
0
0
0
0
0
0
0
0
0
0
0
0
0
0
0
0
0
0
0
0
0
0
0
0
0
0
0
0
0
0
0
0
0
0
0
0
0
0
0
0
0
0
0
0
0
0
0
0
0
0
0
0
0
0
0
0
0
0
0
0
0
0
0
)
;

boundaryField
{
    BotWall
    {
        type            fixedValue;
        value           uniform 1;
    }
    FreeStream
    {
        type            inletOutlet;
        inletValue      uniform 0;
        value           uniform 0;
    }
    FrontNBack
    {
        type            empty;
    }
    LeftSide
    {
        type            symmetryPlane;
    }
    RightSide
    {
        type            symmetryPlane;
    }
}


// ************************************************************************* //
