/*--------------------------------*- C++ -*----------------------------------*\
| =========                 |                                                 |
| \\      /  F ield         | OpenFOAM: The Open Source CFD Toolbox           |
|  \\    /   O peration     | Version:  2.4.x                                 |
|   \\  /    A nd           | Web:      www.OpenFOAM.org                      |
|    \\/     M anipulation  |                                                 |
\*---------------------------------------------------------------------------*/
FoamFile
{
    version     2.0;
    format      ascii;
    class       volScalarField;
    location    "0.001";
    object      p_rgh;
}
// * * * * * * * * * * * * * * * * * * * * * * * * * * * * * * * * * * * * * //

dimensions      [1 -1 -2 0 0 0 0];

internalField   nonuniform List<scalar> 
256
(
40.5406
131.857
2.31257
-8.77398
-1.04035
0.296552
0.101715
-0.0281743
-0.05183
-0.0451063
-0.0403543
-0.0395017
-0.0397454
-0.0399184
-0.0399466
-0.0399341
-0.0399241
-0.0399194
-0.0399163
-0.0399131
-0.0399096
-0.039906
-0.0399025
-0.0398989
-0.0398953
-0.0398917
-0.0398881
-0.0398844
-0.0398808
-0.0398771
-0.0398734
-0.0398696
-0.0398659
-0.0398621
-0.0398583
-0.0398545
-0.0398507
-0.0398468
-0.039843
-0.0398391
-0.0398351
-0.0398312
-0.0398272
-0.0398233
-0.0398193
-0.0398152
-0.0398112
-0.0398071
-0.039803
-0.0397989
-0.0397948
-0.0397906
-0.0397865
-0.0397822
-0.039778
-0.0397738
-0.0397695
-0.0397652
-0.0397609
-0.0397565
-0.0397522
-0.0397478
-0.0397434
-0.0397389
-0.0397345
-0.03973
-0.0397255
-0.0397209
-0.0397164
-0.0397118
-0.0397072
-0.0397026
-0.0396979
-0.0396932
-0.0396885
-0.0396838
-0.039679
-0.0396742
-0.0396694
-0.0396646
-0.0396597
-0.0396548
-0.0396499
-0.0396449
-0.0396399
-0.0396349
-0.0396299
-0.0396249
-0.0396198
-0.0396147
-0.0396095
-0.0396044
-0.0395992
-0.0395939
-0.0395887
-0.0395834
-0.0395781
-0.0395728
-0.0395674
-0.039562
-0.0395566
-0.0395511
-0.0395456
-0.0395401
-0.0395346
-0.039529
-0.0395234
-0.0395177
-0.0395121
-0.0395064
-0.0395006
-0.0394949
-0.0394891
-0.0394833
-0.0394774
-0.0394715
-0.0394656
-0.0394597
-0.0394537
-0.0394477
-0.0394416
-0.0394355
-0.0394294
-0.0394233
-0.0394171
-0.0394109
-0.0394046
-0.0393983
-0.039392
-0.0393857
-0.0393793
-0.0393728
-0.0393664
-0.0393599
-0.0393534
-0.0393468
-0.0393402
-0.0393336
-0.0393269
-0.0393202
-0.0393134
-0.0393067
-0.0392998
-0.039293
-0.0392861
-0.0392792
-0.0392722
-0.0392652
-0.0392581
-0.0392511
-0.0392439
-0.0392368
-0.0392296
-0.0392223
-0.0392151
-0.0392077
-0.0392004
-0.039193
-0.0391855
-0.0391781
-0.0391706
-0.039163
-0.0391554
-0.0391477
-0.0391401
-0.0391323
-0.0391246
-0.0391168
-0.0391089
-0.039101
-0.0390931
-0.0390851
-0.0390771
-0.039069
-0.0390609
-0.0390527
-0.0390445
-0.0390363
-0.039028
-0.0390196
-0.0390113
-0.0390028
-0.0389943
-0.0389858
-0.0389773
-0.0389686
-0.03896
-0.0389513
-0.0389425
-0.0389337
-0.0389249
-0.038916
-0.038907
-0.038898
-0.038889
-0.0388799
-0.0388707
-0.0388615
-0.0388523
-0.038843
-0.0388337
-0.0388243
-0.0388148
-0.0388053
-0.0387958
-0.0387862
-0.0387765
-0.0387668
-0.038757
-0.0387472
-0.0387373
-0.0387274
-0.0387175
-0.0387074
-0.0386973
-0.0386872
-0.038677
-0.0386668
-0.0386564
-0.0386461
-0.0386357
-0.0386252
-0.0386147
-0.0386041
-0.0385934
-0.0385827
-0.0385719
-0.0385611
-0.0385502
-0.0385393
-0.0385283
-0.0385172
-0.0385061
-0.0384949
-0.0384837
-0.0384724
-0.038461
-0.0384496
-0.0384381
-0.0384265
-0.0384149
-0.0384032
-0.0383915
-0.0383797
-0.0383678
-0.0383559
-0.0383439
-0.0383318
-0.0383197
-0.0383075
-0.0382952
-0.0382829
-0.0382705
-0.038258
-0.0382455
-0.0382328
)
;

boundaryField
{
    BotWall
    {
        type            fixedFluxPressure;
        gradient        uniform 0;
        value           uniform 40.5406;
    }
    FreeStream
    {
        type            totalPressure;
        rho             rho;
        psi             none;
        gamma           1;
        p0              uniform 0;
        value           uniform -0.0382264;
    }
    FrontNBack
    {
        type            empty;
    }
    LeftSide
    {
        type            symmetryPlane;
    }
    RightSide
    {
        type            symmetryPlane;
    }
}


// ************************************************************************* //
