/*--------------------------------*- C++ -*----------------------------------*\
| =========                 |                                                 |
| \\      /  F ield         | OpenFOAM: The Open Source CFD Toolbox           |
|  \\    /   O peration     | Version:  2.4.x                                 |
|   \\  /    A nd           | Web:      www.OpenFOAM.org                      |
|    \\/     M anipulation  |                                                 |
\*---------------------------------------------------------------------------*/
FoamFile
{
    version     2.0;
    format      ascii;
    class       volVectorField;
    location    "0.001";
    object      U;
}
// * * * * * * * * * * * * * * * * * * * * * * * * * * * * * * * * * * * * * //

dimensions      [0 1 -1 0 0 0 0];

internalField   nonuniform List<vector> 
256
(
(-6.16008e-24 0.000693313 0)
(-1.82105e-23 -0.00144674 0)
(-2.97373e-23 0.00393669 0)
(-4.51189e-23 -0.0110103 0)
(-9.08814e-23 -0.0957103 0)
(-3.40598e-22 -0.123798 0)
(-5.29853e-22 -0.0924568 0)
(-5.62733e-22 -0.087577 0)
(-2.53568e-22 -0.0882188 0)
(5.85087e-22 -0.0891471 0)
(-1.77497e-20 -0.0893558 0)
(-3.51928e-20 -0.0893266 0)
(-3.02074e-20 -0.0892923 0)
(-2.64884e-20 -0.0892843 0)
(-2.32927e-20 -0.0892854 0)
(-2.06893e-20 -0.0892867 0)
(-1.84901e-20 -0.089287 0)
(-1.64297e-20 -0.089287 0)
(-1.46951e-20 -0.0892869 0)
(-1.32246e-20 -0.0892869 0)
(-1.18525e-20 -0.0892869 0)
(-1.07139e-20 -0.0892869 0)
(-9.7587e-21 -0.0892869 0)
(-8.94329e-21 -0.0892869 0)
(-8.28853e-21 -0.0892869 0)
(-7.74264e-21 -0.0892869 0)
(-6.92468e-21 -0.0892869 0)
(-4.89401e-21 -0.0892869 0)
(-2.20948e-20 -0.0892869 0)
(-3.70531e-20 -0.0892869 0)
(-2.98349e-20 -0.0892869 0)
(-4.30959e-20 -0.0892869 0)
(-5.50239e-20 -0.0892869 0)
(-4.70398e-20 -0.0892869 0)
(-4.08235e-20 -0.0892869 0)
(-3.5649e-20 -0.0892869 0)
(-3.11829e-20 -0.0892869 0)
(-2.71724e-20 -0.0892869 0)
(-2.37618e-20 -0.0892869 0)
(-2.06917e-20 -0.0892869 0)
(-1.82108e-20 -0.0892869 0)
(-1.65615e-20 -0.0892869 0)
(-2.97431e-20 -0.0892869 0)
(-4.13097e-20 -0.0892869 0)
(-3.63862e-20 -0.0892869 0)
(-3.17029e-20 -0.0892869 0)
(-2.74e-20 -0.0892869 0)
(-2.39375e-20 -0.0892869 0)
(-2.09358e-20 -0.0892869 0)
(-1.83271e-20 -0.0892869 0)
(-1.56547e-20 -0.0892869 0)
(-3.02254e-20 -0.0892869 0)
(-4.33576e-20 -0.0892869 0)
(-3.72037e-20 -0.0892869 0)
(-3.23498e-20 -0.0892869 0)
(-2.80429e-20 -0.0892869 0)
(-2.46323e-20 -0.0892869 0)
(-2.17114e-20 -0.0892869 0)
(-1.91442e-20 -0.0892869 0)
(-1.69928e-20 -0.0892869 0)
(-1.50279e-20 -0.0892869 0)
(-1.36166e-20 -0.0892869 0)
(-2.72713e-20 -0.0892869 0)
(-3.89719e-20 -0.0892869 0)
(-3.35638e-20 -0.0892869 0)
(-2.89268e-20 -0.0892869 0)
(-2.49851e-20 -0.0892869 0)
(-2.15254e-20 -0.0892869 0)
(-1.86006e-20 -0.0892869 0)
(-1.60723e-20 -0.0892869 0)
(-1.38778e-20 -0.0892869 0)
(-1.21554e-20 -0.0892869 0)
(-1.09697e-20 -0.0892869 0)
(-1.05116e-20 -0.0892869 0)
(-1.221e-20 -0.0892869 0)
(-2.30043e-20 -0.0892869 0)
(-3.1949e-20 -0.0892869 0)
(-4.3435e-20 -0.0892869 0)
(-5.06583e-20 -0.0892869 0)
(-4.28387e-20 -0.0892869 0)
(-3.59288e-20 -0.0892869 0)
(-3.01164e-20 -0.0892869 0)
(-2.52142e-20 -0.0892869 0)
(-2.09299e-20 -0.0892869 0)
(-1.76084e-20 -0.0892869 0)
(-1.46712e-20 -0.0892869 0)
(-1.1261e-20 -0.0892869 0)
(7.14006e-21 -0.0892869 0)
(2.2546e-20 -0.0892869 0)
(1.92588e-20 -0.0892869 0)
(1.61322e-20 -0.0892869 0)
(1.35009e-20 -0.0892869 0)
(1.20202e-20 -0.0892869 0)
(1.40112e-20 -0.0892869 0)
(2.47962e-20 -0.0892869 0)
(3.36158e-20 -0.0892869 0)
(3.14472e-20 -0.0892869 0)
(2.72274e-20 -0.0892869 0)
(6.88906e-21 -0.0892869 0)
(-9.83918e-21 -0.0892869 0)
(-7.13407e-21 -0.0892869 0)
(-5.04568e-21 -0.0892869 0)
(-5.19814e-21 -0.0892869 0)
(-1.7337e-20 -0.0892869 0)
(-2.71346e-20 -0.0892869 0)
(-2.321e-20 -0.0892869 0)
(-1.84325e-20 -0.0892869 0)
(-1.39833e-20 -0.0892869 0)
(4.94727e-21 -0.0892869 0)
(2.0321e-20 -0.0892869 0)
(1.72777e-20 -0.0892869 0)
(-7.97877e-22 -0.0892869 0)
(-1.57935e-20 -0.0892869 0)
(3.27201e-21 -0.0892869 0)
(1.85927e-20 -0.0892869 0)
(1.52403e-20 -0.0892869 0)
(1.25248e-20 -0.0892869 0)
(1.11352e-20 -0.0892869 0)
(2.40458e-20 -0.0892869 0)
(3.4379e-20 -0.0892869 0)
(2.85446e-20 -0.0892869 0)
(2.31618e-20 -0.0892869 0)
(1.86835e-20 -0.0892869 0)
(1.52763e-20 -0.0892869 0)
(1.23166e-20 -0.0892869 0)
(9.60458e-21 -0.0892869 0)
(7.06403e-21 -0.0892869 0)
(4.22434e-21 -0.0892869 0)
(-8.05883e-21 -0.0892869 0)
(-1.68187e-20 -0.0892869 0)
(-1.42146e-20 -0.0892869 0)
(-1.13971e-20 -0.0892869 0)
(-8.73209e-21 -0.0892869 0)
(-6.3637e-21 -0.0892869 0)
(-4.50899e-21 -0.0892869 0)
(-2.96665e-21 -0.0892869 0)
(-1.66682e-21 -0.0892869 0)
(-6.91249e-22 -0.0892869 0)
(1.24325e-22 -0.0892869 0)
(8.63857e-22 -0.0892869 0)
(1.62927e-21 -0.0892869 0)
(2.78749e-21 -0.0892869 0)
(5.24137e-21 -0.0892869 0)
(3.10674e-20 -0.0892869 0)
(5.13814e-20 -0.0892869 0)
(4.20431e-20 -0.0892869 0)
(3.4427e-20 -0.0892869 0)
(2.80941e-20 -0.0892869 0)
(2.31599e-20 -0.0892869 0)
(1.94386e-20 -0.0892869 0)
(1.68445e-20 -0.0892869 0)
(1.49072e-20 -0.0892869 0)
(1.35477e-20 -0.0892869 0)
(1.26951e-20 -0.0892869 0)
(1.21912e-20 -0.0892869 0)
(1.19469e-20 -0.0892869 0)
(1.19369e-20 -0.0892869 0)
(1.20884e-20 -0.0892869 0)
(1.23717e-20 -0.0892869 0)
(1.27229e-20 -0.0892869 0)
(1.3136e-20 -0.0892869 0)
(1.3611e-20 -0.0892869 0)
(1.40456e-20 -0.0892869 0)
(1.44776e-20 -0.0892869 0)
(1.49028e-20 -0.0892869 0)
(1.53247e-20 -0.0892869 0)
(1.58688e-20 -0.0892869 0)
(1.67054e-20 -0.0892869 0)
(1.74675e-20 -0.0892869 0)
(-1.00575e-20 -0.0892869 0)
(-3.10543e-20 -0.0892869 0)
(-1.77743e-20 -0.0892869 0)
(-7.8259e-21 -0.0892869 0)
(-5.84194e-22 -0.0892869 0)
(5.18982e-21 -0.0892869 0)
(9.9024e-21 -0.0892869 0)
(1.33095e-20 -0.0892869 0)
(1.59953e-20 -0.0892869 0)
(1.82493e-20 -0.0892869 0)
(2.10632e-20 -0.0892869 0)
(4.86576e-20 -0.0892869 0)
(7.0965e-20 -0.0892869 0)
(6.02372e-20 -0.0892869 0)
(5.12006e-20 -0.0892869 0)
(4.44196e-20 -0.0892869 0)
(3.96991e-20 -0.0892869 0)
(3.6236e-20 -0.0892869 0)
(3.31282e-20 -0.0892869 0)
(4.23465e-21 -0.0892869 0)
(-1.73862e-20 -0.0892869 0)
(-6.37942e-21 -0.0892869 0)
(1.7756e-21 -0.0892869 0)
(7.60813e-21 -0.0892869 0)
(1.17542e-20 -0.0892869 0)
(1.47549e-20 -0.0892869 0)
(1.6584e-20 -0.0892869 0)
(1.77385e-20 -0.0892869 0)
(1.83305e-20 -0.0892869 0)
(1.85244e-20 -0.0892869 0)
(1.84086e-20 -0.0892869 0)
(1.80557e-20 -0.0892869 0)
(1.75317e-20 -0.0892869 0)
(1.69125e-20 -0.0892869 0)
(1.6192e-20 -0.0892869 0)
(1.5357e-20 -0.0892869 0)
(1.45668e-20 -0.0892869 0)
(1.37437e-20 -0.0892869 0)
(1.28989e-20 -0.0892869 0)
(1.21458e-20 -0.0892869 0)
(1.14541e-20 -0.0892869 0)
(1.07958e-20 -0.0892869 0)
(1.04293e-20 -0.0892869 0)
(1.11422e-20 -0.0892869 0)
(-1.68257e-20 -0.0892869 0)
(-3.82934e-20 -0.0892869 0)
(9.72509e-22 -0.0892869 0)
(2.88299e-20 -0.0892869 0)
(-6.91613e-21 -0.0892869 0)
(-2.98142e-20 -0.0892869 0)
(-4.70817e-20 -0.0892869 0)
(-5.94773e-20 -0.0892869 0)
(-4.07519e-20 -0.0892869 0)
(-2.7397e-20 -0.0892869 0)
(-1.72573e-20 -0.0892869 0)
(-1.09767e-20 -0.0892869 0)
(-6.55822e-21 -0.0892869 0)
(-3.40609e-21 -0.0892869 0)
(-1.10835e-21 -0.0892869 0)
(5.73842e-22 -0.0892869 0)
(1.56867e-21 -0.0892869 0)
(4.16446e-22 -0.0892869 0)
(-2.25778e-20 -0.0892869 0)
(-3.84559e-20 -0.0892869 0)
(-2.52093e-20 -0.0892869 0)
(-4.40313e-20 -0.0892869 0)
(-5.82818e-20 -0.0892869 0)
(-6.18894e-20 -0.0892869 0)
(-6.46247e-20 -0.0892869 0)
(-4.41782e-20 -0.0892869 0)
(-2.9627e-20 -0.0892869 0)
(-2.03728e-20 -0.0892869 0)
(-1.40459e-20 -0.0892869 0)
(-9.33406e-21 -0.0892869 0)
(-6.63503e-21 -0.0892869 0)
(-4.98844e-21 -0.0892869 0)
(-4.20536e-21 -0.0892869 0)
(-4.05705e-21 -0.0892869 0)
(-4.41328e-21 -0.0892869 0)
(-2.8695e-20 -0.0892869 0)
(-4.86317e-20 -0.0892869 0)
(-3.18782e-20 -0.0892869 0)
(-2.35679e-20 -0.0892869 0)
(-1.71473e-20 -0.0892869 0)
(-1.36486e-20 -0.0892869 0)
(-1.22554e-20 -0.0892869 0)
(-1.16923e-20 -0.0892869 0)
)
;

boundaryField
{
    BotWall
    {
        type            fixedValue;
        value           uniform (0 0 0);
    }
    FreeStream
    {
        type            zeroGradient;
    }
    FrontNBack
    {
        type            empty;
    }
    LeftSide
    {
        type            symmetryPlane;
    }
    RightSide
    {
        type            symmetryPlane;
    }
}


// ************************************************************************* //
